                         Program Version 5.0.3 -  RELEASE  -
|  1> ! B3LYP cc-pVDZ
|  2> !TightSCF
|  3> %scf
|  4>  ConvForced true
|  5>  convergence tight
|  6>  MaxIter 500
|  7> end
|  8>
|  9> %tddft
| 10>  nroots 1
| 11> end
| 12>
| 13> # 	29662
| 14> * xyz 0 1
| 15> 		C   -0.593295  -0.426565   0.080761
| 16> 		O   -0.599151  -1.649059  -0.058533
| 17> 		C    0.612893   0.389479  -0.034507
| 18> 		C    1.879059  -0.075038   0.026794
| 19> 		H   -1.624119   0.096690   0.229153
| 20> 		H    0.498996   1.372663  -0.348889
| 21> 		H    2.021490  -1.189130   0.291893
| 22> 		H    2.926887   0.474111  -0.145079
| 23> *
| 24>
| 25>                          ****END OF INPUT****

CARTESIAN COORDINATES (ANGSTROEM)
---------------------------------
  C     -0.593295   -0.426565    0.080761
  O     -0.599151   -1.649059   -0.058533
  C      0.612893    0.389479   -0.034507
  C      1.879059   -0.075038    0.026794
  H     -1.624119    0.096690    0.229153
  H      0.498996    1.372663   -0.348889
  H      2.021490   -1.189130    0.291893
  H      2.926887    0.474111   -0.145079

 Total Charge           Charge          ....    0
 Multiplicity           Mult            ....    1
 Number of Electrons    NEL             ....   30
 Basis Dimension        Dim             ....   76

ORBITAL ENERGIES
----------------

  NO   OCC          E(Eh)            E(eV)
   0   2.0000     -19.138325      -520.7803
   1   2.0000     -10.281586      -279.7762
   2   2.0000     -10.230948      -278.3983
   3   2.0000     -10.205293      -277.7001
   4   2.0000      -1.036025       -28.1917
   5   2.0000      -0.793859       -21.6020
   6   2.0000      -0.652237       -17.7483
   7   2.0000      -0.541606       -14.7379
   8   2.0000      -0.502985       -13.6869
   9   2.0000      -0.446030       -12.1371
  10   2.0000      -0.424094       -11.5402
  11   2.0000      -0.390181       -10.6174
  12   2.0000      -0.367378        -9.9969
  13   2.0000      -0.287703        -7.8288
  14   2.0000      -0.255794        -6.9605
  15   0.0000      -0.073105        -1.9893
  16   0.0000       0.047915         1.3038
  17   0.0000       0.060040         1.6338
  18   0.0000       0.081924         2.2293
  19   0.0000       0.117368         3.1937

MULLIKEN ATOMIC CHARGES
-----------------------
   0 C :    0.157389
   1 O :   -0.201428
   2 C :   -0.036994
   3 C :   -0.017132
   4 H :   -0.003899
   5 H :   -0.018502
   6 H :    0.054357
   7 H :    0.066209
Sum of atomic charges:    0.0000000

LOEWDIN ATOMIC CHARGES
----------------------
   0 C :   -0.027465
   1 O :   -0.021519
   2 C :   -0.083268
   3 C :    0.012467
   4 H :    0.005292
   5 H :    0.018908
   6 H :    0.042092
   7 H :    0.053494

  Mayer bond orders larger than 0.100000
B(  0-C ,  1-O ) :   2.1690 B(  0-C ,  2-C ) :   1.0506 B(  0-C ,  4-H ) :   0.9132
B(  2-C ,  3-C ) :   1.9359 B(  2-C ,  5-H ) :   0.9463 B(  3-C ,  6-H ) :   0.9333
B(  3-C ,  7-H ) :   0.9456

-----------------------------------------------------------------------------
         ABSORPTION SPECTRUM VIA TRANSITION ELECTRIC DIPOLE MOMENTS
-----------------------------------------------------------------------------
State   Energy    Wavelength  fosc         T2        TX        TY        TZ
        (cm-1)      (nm)                 (au**2)    (au)      (au)      (au)
-----------------------------------------------------------------------------
   1   27162.3    368.2   0.000243343   0.00295   0.04245   0.01729  -0.02913

FINAL SINGLE POINT ENERGY      -191.668896792632

DIPOLE MOMENT
-------------
                                X             Y             Z
Electronic contribution:     -1.98799      -1.59589       0.00759
Nuclear contribution   :      2.43074       2.49567       0.02667
                        -----------------------------------------
Total Dipole Moment    :      0.44274       0.89978       0.03427
                        -----------------------------------------
Magnitude (a.u.)       :      1.00340
Magnitude (Debye)      :      2.55043

Rotational constants in cm-1:     0.771301     0.199385     0.159747
Rotational constants in MHz : 23123.031227  5977.416037  4789.098663

                             ****ORCA TERMINATED NORMALLY****
TOTAL RUN TIME: 0 days 0 hours 3 minutes 15 seconds 904 msec
