                         Program Version 5.0.3 -  RELEASE  -
|  1> ! B3LYP cc-pVDZ
|  2> !TightSCF
|  3> %scf
|  4>  ConvForced true
|  5>  convergence tight
|  6>  MaxIter 500
|  7> end
|  8>
|  9> %tddft
| 10>  nroots 1
| 11> end
| 12>
| 13> # 	0
| 14> * xyz 0 1
| 15> 		C   -1.226059  -0.293099   0.091398
| 16> 		O   -1.242458  -1.537019   0.027080
| 17> 		C   -0.015352   0.464582   0.078464
| 18> 		C    1.298515   0.064544   0.072088
| 19> 		H   -2.211728   0.066157  -0.011892
| 20> 		H   -0.161238   1.513315  -0.155544
| 21> 		H    1.372302  -1.055428  -0.038384
| 22> 		H    2.210529   0.777050  -0.033036
| 23> *
| 24>
| 25>                          ****END OF INPUT****

CARTESIAN COORDINATES (ANGSTROEM)
---------------------------------
  C     -1.226059   -0.293099    0.091398
  O     -1.242458   -1.537019    0.027080
  C     -0.015352    0.464582    0.078464
  C      1.298515    0.064544    0.072088
  H     -2.211728    0.066157   -0.011892
  H     -0.161238    1.513315   -0.155544
  H      1.372302   -1.055428   -0.038384
  H      2.210529    0.777050   -0.033036

 Total Charge           Charge          ....    0
 Multiplicity           Mult            ....    1
 Number of Electrons    NEL             ....   30
 Basis Dimension        Dim             ....   76

ORBITAL ENERGIES
----------------

  NO   OCC          E(Eh)            E(eV)
   0   2.0000     -19.129550      -520.5415
   1   2.0000     -10.267285      -279.3870
   2   2.0000     -10.231739      -278.4198
   3   2.0000     -10.208923      -277.7989
   4   2.0000      -1.025333       -27.9007
   5   2.0000      -0.792145       -21.5554
   6   2.0000      -0.664240       -18.0749
   7   2.0000      -0.546680       -14.8759
   8   2.0000      -0.509595       -13.8668
   9   2.0000      -0.443206       -12.0603
  10   2.0000      -0.424589       -11.5537
  11   2.0000      -0.391716       -10.6591
  12   2.0000      -0.364128        -9.9084
  13   2.0000      -0.280949        -7.6450
  14   2.0000      -0.250160        -6.8072
  15   0.0000      -0.083217        -2.2644
  16   0.0000       0.055941         1.5222
  17   0.0000       0.057099         1.5537
  18   0.0000       0.092671         2.5217
  19   0.0000       0.123787         3.3684

MULLIKEN ATOMIC CHARGES
-----------------------
   0 C :    0.201119
   1 O :   -0.228485
   2 C :   -0.080547
   3 C :    0.018869
   4 H :   -0.022044
   5 H :   -0.009081
   6 H :    0.053166
   7 H :    0.067002
Sum of atomic charges:   -0.0000000

LOEWDIN ATOMIC CHARGES
----------------------
   0 C :   -0.023502
   1 O :   -0.038651
   2 C :   -0.081202
   3 C :    0.020423
   4 H :    0.000645
   5 H :    0.026746
   6 H :    0.042297
   7 H :    0.053245

  Mayer bond orders larger than 0.100000
B(  0-C ,  1-O ) :   2.1159 B(  0-C ,  2-C ) :   1.0883 B(  0-C ,  4-H ) :   0.9513
B(  1-O ,  3-C ) :   0.1076 B(  2-C ,  3-C ) :   1.9270 B(  2-C ,  5-H ) :   0.9423
B(  3-C ,  6-H ) :   0.9270 B(  3-C ,  7-H ) :   0.9380

-----------------------------------------------------------------------------
         ABSORPTION SPECTRUM VIA TRANSITION ELECTRIC DIPOLE MOMENTS
-----------------------------------------------------------------------------
State   Energy    Wavelength  fosc         T2        TX        TY        TZ
        (cm-1)      (nm)                 (au**2)    (au)      (au)      (au)
-----------------------------------------------------------------------------
   1   23741.0    421.2   0.000197560   0.00274  -0.03809  -0.01972   0.03000

FINAL SINGLE POINT ENERGY      -191.675528788226

DIPOLE MOMENT
-------------
                                X             Y             Z
Electronic contribution:     -1.90369      -1.61050       0.35426
Nuclear contribution   :      2.32445       2.57178      -0.43191
                        -----------------------------------------
Total Dipole Moment    :      0.42076       0.96128      -0.07765
                        -----------------------------------------
Magnitude (a.u.)       :      1.05220
Magnitude (Debye)      :      2.67448

Rotational constants in cm-1:     0.815523     0.194617     0.157412
Rotational constants in MHz : 24448.779023  5834.469691  4719.105232

                             ****ORCA TERMINATED NORMALLY****
TOTAL RUN TIME: 0 days 0 hours 3 minutes 17 seconds 56 msec
