                         Program Version 5.0.3 -  RELEASE  -
|  1> ! HF-3c
|  2> !TightSCF
|  3> %scf
|  4>  ConvForced true
|  5>  convergence tight
|  6>  MaxIter 500
|  7> end
|  8>
|  9> %tddft
| 10>  nroots 1
| 11> end
| 12>
| 13> # 	2121
| 14> * xyz 0 1
| 15> 		C   -1.167422  -0.305356   0.008008
| 16> 		O   -1.234154  -1.543896   0.170611
| 17> 		C    0.065019   0.582982   0.058046
| 18> 		C    1.328471  -0.005476   0.011294
| 19> 		H   -2.169749   0.207834  -0.097199
| 20> 		H   -0.170530   1.447441   0.120413
| 21> 		H    1.313036  -1.131788  -0.316508
| 22> 		H    2.095171   0.755459   0.013291
| 23> *
| 24>
| 25>                          ****END OF INPUT****

CARTESIAN COORDINATES (ANGSTROEM)
---------------------------------
  C     -1.167422   -0.305356    0.008008
  O     -1.234154   -1.543896    0.170611
  C      0.065019    0.582982    0.058046
  C      1.328471   -0.005476    0.011294
  H     -2.169749    0.207834   -0.097199
  H     -0.170530    1.447441    0.120413
  H      1.313036   -1.131788   -0.316508
  H      2.095171    0.755459    0.013291

 Total Charge           Charge          ....    0
 Multiplicity           Mult            ....    1
 Number of Electrons    NEL             ....   30
 Basis Dimension        Dim             ....   24

ORBITAL ENERGIES
----------------

  NO   OCC          E(Eh)            E(eV)
   0   2.0000     -20.342815      -553.5561
   1   2.0000     -11.275874      -306.8321
   2   2.0000     -11.200794      -304.7891
   3   2.0000     -11.189039      -304.4692
   4   2.0000      -1.363603       -37.1055
   5   2.0000      -1.072994       -29.1977
   6   2.0000      -0.888959       -24.1898
   7   2.0000      -0.761790       -20.7294
   8   2.0000      -0.699862       -19.0442
   9   2.0000      -0.594978       -16.1902
  10   2.0000      -0.581751       -15.8302
  11   2.0000      -0.548398       -14.9227
  12   2.0000      -0.513099       -13.9621
  13   2.0000      -0.403559       -10.9814
  14   2.0000      -0.382229       -10.4010
  15   0.0000       0.119690         3.2569
  16   0.0000       0.278767         7.5856
  17   0.0000       0.511343        13.9144
  18   0.0000       0.557708        15.1760
  19   0.0000       0.666602        18.1392

MULLIKEN ATOMIC CHARGES
-----------------------
   0 C :    0.158408
   1 O :   -0.359520
   2 C :   -0.208252
   3 C :   -0.194395
   4 H :    0.131688
   5 H :    0.134503
   6 H :    0.182078
   7 H :    0.155490
Sum of atomic charges:    0.0000000

LOEWDIN ATOMIC CHARGES
----------------------
   0 C :    0.146352
   1 O :   -0.276772
   2 C :   -0.151511
   3 C :   -0.095717
   4 H :    0.072550
   5 H :    0.070201
   6 H :    0.132191
   7 H :    0.102705

  Mayer bond orders larger than 0.100000
B(  0-C ,  1-O ) :   1.9008 B(  0-C ,  2-C ) :   1.0256 B(  0-C ,  4-H ) :   0.9316
B(  2-C ,  3-C ) :   1.9271 B(  2-C ,  5-H ) :   0.9704 B(  3-C ,  6-H ) :   0.9510
B(  3-C ,  7-H ) :   0.9625

-----------------------------------------------------------------------------
         ABSORPTION SPECTRUM VIA TRANSITION ELECTRIC DIPOLE MOMENTS
-----------------------------------------------------------------------------
State   Energy    Wavelength  fosc         T2        TX        TY        TZ
        (cm-1)      (nm)                 (au**2)    (au)      (au)      (au)
-----------------------------------------------------------------------------
   1   30487.2    328.0   0.000029067   0.00031  -0.01205   0.00270   0.01270

Dispersion correction           -0.025472823
FINAL SINGLE POINT ENERGY      -189.289822380410

DIPOLE MOMENT
-------------
                                X             Y             Z
Electronic contribution:     -1.59493      -1.67352       0.28420
Nuclear contribution   :      2.05572       2.53064      -0.48706
                        -----------------------------------------
Total Dipole Moment    :      0.46080       0.85712      -0.20286
                        -----------------------------------------
Magnitude (a.u.)       :      0.99405
Magnitude (Debye)      :      2.52667

Rotational constants in cm-1:     0.749688     0.194322     0.155173
Rotational constants in MHz : 22475.083883  5825.640885  4651.971633

                             ****ORCA TERMINATED NORMALLY****
TOTAL RUN TIME: 0 days 0 hours 0 minutes 11 seconds 62 msec
