                         Program Version 5.0.3 -  RELEASE  -
|  1> ! B3LYP cc-pVDZ
|  2> !TightSCF
|  3> %scf
|  4>  ConvForced true
|  5>  convergence tight
|  6>  MaxIter 500
|  7> end
|  8>
|  9> %tddft
| 10>  nroots 1
| 11> end
| 12>
| 13> # 	9437
| 14> * xyz 0 1
| 15> 		C   -1.179639  -0.355143  -0.143966
| 16> 		O   -2.037078  -0.534363  -0.941378
| 17> 		C    0.086567   0.466765  -0.315033
| 18> 		C    1.192721   0.129899   0.285950
| 19> 		H   -1.257808  -0.815660   0.924018
| 20> 		H   -0.015334   1.308057  -1.017064
| 21> 		H    1.101613  -0.946658   0.949478
| 22> 		H    2.137063   0.754080   0.262346
| 23> *
| 24>
| 25>                          ****END OF INPUT****

CARTESIAN COORDINATES (ANGSTROEM)
---------------------------------
  C     -1.179639   -0.355143   -0.143966
  O     -2.037078   -0.534363   -0.941378
  C      0.086567    0.466765   -0.315033
  C      1.192721    0.129899    0.285950
  H     -1.257808   -0.815660    0.924018
  H     -0.015334    1.308057   -1.017064
  H      1.101613   -0.946658    0.949478
  H      2.137063    0.754080    0.262346

 Total Charge           Charge          ....    0
 Multiplicity           Mult            ....    1
 Number of Electrons    NEL             ....   30
 Basis Dimension        Dim             ....   76

ORBITAL ENERGIES
----------------

  NO   OCC          E(Eh)            E(eV)
   0   2.0000     -19.146858      -521.0125
   1   2.0000     -10.283161      -279.8190
   2   2.0000     -10.228479      -278.3311
   3   2.0000     -10.206884      -277.7434
   4   2.0000      -1.066125       -29.0107
   5   2.0000      -0.802302       -21.8317
   6   2.0000      -0.632005       -17.1977
   7   2.0000      -0.555494       -15.1158
   8   2.0000      -0.477187       -12.9849
   9   2.0000      -0.463025       -12.5995
  10   2.0000      -0.435638       -11.8543
  11   2.0000      -0.400680       -10.9031
  12   2.0000      -0.373451       -10.1621
  13   2.0000      -0.298670        -8.1272
  14   2.0000      -0.257226        -6.9995
  15   0.0000      -0.055345        -1.5060
  16   0.0000       0.035326         0.9613
  17   0.0000       0.054223         1.4755
  18   0.0000       0.078107         2.1254
  19   0.0000       0.110170         2.9979

MULLIKEN ATOMIC CHARGES
-----------------------
   0 C :    0.148178
   1 O :   -0.158908
   2 C :   -0.061317
   3 C :   -0.018176
   4 H :   -0.022230
   5 H :    0.009309
   6 H :    0.050571
   7 H :    0.052572
Sum of atomic charges:   -0.0000000

LOEWDIN ATOMIC CHARGES
----------------------
   0 C :   -0.048235
   1 O :    0.031018
   2 C :   -0.076110
   3 C :   -0.030162
   4 H :   -0.008933
   5 H :    0.034144
   6 H :    0.054680
   7 H :    0.043598

  Mayer bond orders larger than 0.100000
B(  0-C ,  1-O ) :   2.2314 B(  0-C ,  2-C ) :   1.0120 B(  0-C ,  4-H ) :   0.8946
B(  2-C ,  3-C ) :   1.9721 B(  2-C ,  5-H ) :   0.9452 B(  3-C ,  6-H ) :   0.9193
B(  3-C ,  7-H ) :   0.9329

-----------------------------------------------------------------------------
         ABSORPTION SPECTRUM VIA TRANSITION ELECTRIC DIPOLE MOMENTS
-----------------------------------------------------------------------------
State   Energy    Wavelength  fosc         T2        TX        TY        TZ
        (cm-1)      (nm)                 (au**2)    (au)      (au)      (au)
-----------------------------------------------------------------------------
   1   31317.0    319.3   0.000174956   0.00184   0.03658  -0.02201   0.00407

FINAL SINGLE POINT ENERGY      -191.645343475866

DIPOLE MOMENT
-------------
                                X             Y             Z
Electronic contribution:     -2.95851      -0.34391      -1.65139
Nuclear contribution   :      3.79045       0.63264       2.11168
                        -----------------------------------------
Total Dipole Moment    :      0.83193       0.28873       0.46029
                        -----------------------------------------
Magnitude (a.u.)       :      0.99365
Magnitude (Debye)      :      2.52567

Rotational constants in cm-1:     1.399845     0.154640     0.143057
Rotational constants in MHz : 41966.310841  4635.995113  4288.735479

                             ****ORCA TERMINATED NORMALLY****
TOTAL RUN TIME: 0 days 0 hours 3 minutes 11 seconds 151 msec
