                         Program Version 5.0.3 -  RELEASE  -
|  1> ! B3LYP cc-pVDZ
|  2> !TightSCF
|  3> %scf
|  4>  ConvForced true
|  5>  convergence tight
|  6>  MaxIter 500
|  7> end
|  8>
|  9> %tddft
| 10>  nroots 1
| 11> end
| 12>
| 13> # 	30094
| 14> * xyz 0 1
| 15> 		C   -0.544865  -0.417765  -0.014015
| 16> 		O   -0.596223  -1.626707   0.012919
| 17> 		C    0.618027   0.367108   0.013550
| 18> 		C    1.820364  -0.093628  -0.019291
| 19> 		H   -1.560699   0.103037  -0.074077
| 20> 		H    0.593443   1.474147   0.047202
| 21> 		H    2.047749  -1.208777  -0.047144
| 22> 		H    2.792582   0.427969   0.114598
| 23> *
| 24>
| 25>                          ****END OF INPUT****

CARTESIAN COORDINATES (ANGSTROEM)
---------------------------------
  C     -0.544865   -0.417765   -0.014015
  O     -0.596223   -1.626707    0.012919
  C      0.618027    0.367108    0.013550
  C      1.820364   -0.093628   -0.019291
  H     -1.560699    0.103037   -0.074077
  H      0.593443    1.474147    0.047202
  H      2.047749   -1.208777   -0.047144
  H      2.792582    0.427969    0.114598

 Total Charge           Charge          ....    0
 Multiplicity           Mult            ....    1
 Number of Electrons    NEL             ....   30
 Basis Dimension        Dim             ....   76

ORBITAL ENERGIES
----------------

  NO   OCC          E(Eh)            E(eV)
   0   2.0000     -19.133743      -520.6556
   1   2.0000     -10.271308      -279.4965
   2   2.0000     -10.216411      -278.0027
   3   2.0000     -10.200350      -277.5656
   4   2.0000      -1.045120       -28.4392
   5   2.0000      -0.813293       -22.1308
   6   2.0000      -0.663786       -18.0625
   7   2.0000      -0.541669       -14.7396
   8   2.0000      -0.515018       -14.0144
   9   2.0000      -0.454676       -12.3724
  10   2.0000      -0.421729       -11.4758
  11   2.0000      -0.403090       -10.9686
  12   2.0000      -0.361703        -9.8424
  13   2.0000      -0.297125        -8.0852
  14   2.0000      -0.253572        -6.9001
  15   0.0000      -0.071600        -1.9483
  16   0.0000       0.060043         1.6339
  17   0.0000       0.078543         2.1373
  18   0.0000       0.088219         2.4006
  19   0.0000       0.120236         3.2718

MULLIKEN ATOMIC CHARGES
-----------------------
   0 C :    0.173904
   1 O :   -0.188710
   2 C :   -0.071489
   3 C :    0.041575
   4 H :   -0.026741
   5 H :   -0.006716
   6 H :    0.040310
   7 H :    0.037868
Sum of atomic charges:    0.0000000

LOEWDIN ATOMIC CHARGES
----------------------
   0 C :   -0.048499
   1 O :   -0.003353
   2 C :   -0.098041
   3 C :    0.032326
   4 H :   -0.002146
   5 H :    0.041796
   6 H :    0.039994
   7 H :    0.037923

  Mayer bond orders larger than 0.100000
B(  0-C ,  1-O ) :   2.1976 B(  0-C ,  2-C ) :   1.0722 B(  0-C ,  4-H ) :   0.9202
B(  1-O ,  3-C ) :   0.1052 B(  2-C ,  3-C ) :   1.9623 B(  2-C ,  5-H ) :   0.9347
B(  3-C ,  6-H ) :   0.9350 B(  3-C ,  7-H ) :   0.9425

-----------------------------------------------------------------------------
         ABSORPTION SPECTRUM VIA TRANSITION ELECTRIC DIPOLE MOMENTS
-----------------------------------------------------------------------------
State   Energy    Wavelength  fosc         T2        TX        TY        TZ
        (cm-1)      (nm)                 (au**2)    (au)      (au)      (au)
-----------------------------------------------------------------------------
   1   26928.7    371.4   0.000137389   0.00168   0.00555   0.00066  -0.04060

FINAL SINGLE POINT ENERGY      -191.671993769793

DIPOLE MOMENT
-------------
                                X             Y             Z
Electronic contribution:     -1.93369      -1.63960      -0.03099
Nuclear contribution   :      2.47514       2.53452       0.03757
                        -----------------------------------------
Total Dipole Moment    :      0.54145       0.89492       0.00658
                        -----------------------------------------
Magnitude (a.u.)       :      1.04599
Magnitude (Debye)      :      2.65869

Rotational constants in cm-1:     0.819491     0.211056     0.167949
Rotational constants in MHz : 24567.717780  6327.303997  5034.974774

                             ****ORCA TERMINATED NORMALLY****
TOTAL RUN TIME: 0 days 0 hours 3 minutes 22 seconds 821 msec
