                         Program Version 5.0.3 -  RELEASE  -
|  1> ! HF-3c
|  2> !TightSCF
|  3> %scf
|  4>  ConvForced true
|  5>  convergence tight
|  6>  MaxIter 500
|  7> end
|  8>
|  9> %tddft
| 10>  nroots 1
| 11> end
| 12>
| 13> # 	26676
| 14> * xyz 0 1
| 15> 		C   -0.564362  -0.437960   0.018866
| 16> 		O   -0.588675  -1.647520  -0.002067
| 17> 		C    0.596119   0.442843  -0.025431
| 18> 		C    1.875230  -0.122974  -0.009450
| 19> 		H   -1.468721  -0.029451  -0.064561
| 20> 		H    0.575293   1.621508   0.153231
| 21> 		H    1.804119  -1.275206   0.094084
| 22> 		H    2.698202   0.453485   0.049583
| 23> *
| 24>
| 25>                          ****END OF INPUT****

CARTESIAN COORDINATES (ANGSTROEM)
---------------------------------
  C     -0.564362   -0.437960    0.018866
  O     -0.588675   -1.647520   -0.002067
  C      0.596119    0.442843   -0.025431
  C      1.875230   -0.122974   -0.009450
  H     -1.468721   -0.029451   -0.064561
  H      0.575293    1.621508    0.153231
  H      1.804119   -1.275206    0.094084
  H      2.698202    0.453485    0.049583

 Total Charge           Charge          ....    0
 Multiplicity           Mult            ....    1
 Number of Electrons    NEL             ....   30
 Basis Dimension        Dim             ....   24

ORBITAL ENERGIES
----------------

  NO   OCC          E(Eh)            E(eV)
   0   2.0000     -20.361837      -554.0737
   1   2.0000     -11.298385      -307.4447
   2   2.0000     -11.187671      -304.4320
   3   2.0000     -11.180913      -304.2481
   4   2.0000      -1.404958       -38.2308
   5   2.0000      -1.063060       -28.9273
   6   2.0000      -0.902214       -24.5505
   7   2.0000      -0.764139       -20.7933
   8   2.0000      -0.692551       -18.8453
   9   2.0000      -0.605868       -16.4865
  10   2.0000      -0.602374       -16.3914
  11   2.0000      -0.545396       -14.8410
  12   2.0000      -0.508805       -13.8453
  13   2.0000      -0.421489       -11.4693
  14   2.0000      -0.375013       -10.2046
  15   0.0000       0.116859         3.1799
  16   0.0000       0.299203         8.1417
  17   0.0000       0.524075        14.2608
  18   0.0000       0.568648        15.4737
  19   0.0000       0.650974        17.7139

MULLIKEN ATOMIC CHARGES
-----------------------
   0 C :    0.132544
   1 O :   -0.351521
   2 C :   -0.162087
   3 C :   -0.217760
   4 H :    0.138421
   5 H :    0.147395
   6 H :    0.170083
   7 H :    0.142925
Sum of atomic charges:    0.0000000

LOEWDIN ATOMIC CHARGES
----------------------
   0 C :    0.130212
   1 O :   -0.259658
   2 C :   -0.131747
   3 C :   -0.114392
   4 H :    0.064986
   5 H :    0.103473
   6 H :    0.120574
   7 H :    0.086553

  Mayer bond orders larger than 0.100000
B(  0-C ,  1-O ) :   1.8832 B(  0-C ,  2-C ) :   1.0500 B(  0-C ,  4-H ) :   0.9389
B(  2-C ,  3-C ) :   1.9139 B(  2-C ,  5-H ) :   0.9572 B(  3-C ,  6-H ) :   0.9541
B(  3-C ,  7-H ) :   0.9703

-----------------------------------------------------------------------------
         ABSORPTION SPECTRUM VIA TRANSITION ELECTRIC DIPOLE MOMENTS
-----------------------------------------------------------------------------
State   Energy    Wavelength  fosc         T2        TX        TY        TZ
        (cm-1)      (nm)                 (au**2)    (au)      (au)      (au)
-----------------------------------------------------------------------------
   1   31664.0    315.8   0.000090614   0.00094  -0.02565  -0.00619  -0.01567

Dispersion correction           -0.025826372
FINAL SINGLE POINT ENERGY      -189.303239396864

DIPOLE MOMENT
-------------
                                X             Y             Z
Electronic contribution:     -1.82882      -1.60574      -0.12833
Nuclear contribution   :      2.22632       2.51278       0.21735
                        -----------------------------------------
Total Dipole Moment    :      0.39750       0.90704       0.08903
                        -----------------------------------------
Magnitude (a.u.)       :      0.99431
Magnitude (Debye)      :      2.52734

Rotational constants in cm-1:     0.757944     0.207105     0.162824
Rotational constants in MHz : 22722.598759  6208.854582  4881.339689

                             ****ORCA TERMINATED NORMALLY****
TOTAL RUN TIME: 0 days 0 hours 0 minutes 13 seconds 559 msec
