                         Program Version 5.0.3 -  RELEASE  -
|  1> ! HF-3c
|  2> !TightSCF
|  3> %scf
|  4>  ConvForced true
|  5>  convergence tight
|  6>  MaxIter 500
|  7> end
|  8>
|  9> %tddft
| 10>  nroots 1
| 11> end
| 12>
| 13> # 	18988
| 14> * xyz 0 1
| 15> 		C   -1.193156  -0.411988  -0.035962
| 16> 		O   -1.484669  -1.440656  -0.640737
| 17> 		C   -0.002126   0.404998  -0.182919
| 18> 		C    1.193567   0.026777   0.186238
| 19> 		H   -1.905442   0.046522   0.745708
| 20> 		H   -0.063819   1.398769  -0.524333
| 21> 		H    1.374675  -0.909340   0.397781
| 22> 		H    2.038314   0.821076  -0.049644
| 23> *
| 24>
| 25>                          ****END OF INPUT****

CARTESIAN COORDINATES (ANGSTROEM)
---------------------------------
  C     -1.193156   -0.411988   -0.035962
  O     -1.484669   -1.440656   -0.640737
  C     -0.002126    0.404998   -0.182919
  C      1.193567    0.026777    0.186238
  H     -1.905442    0.046522    0.745708
  H     -0.063819    1.398769   -0.524333
  H      1.374675   -0.909340    0.397781
  H      2.038314    0.821076   -0.049644

 Total Charge           Charge          ....    0
 Multiplicity           Mult            ....    1
 Number of Electrons    NEL             ....   30
 Basis Dimension        Dim             ....   24

ORBITAL ENERGIES
----------------

  NO   OCC          E(Eh)            E(eV)
   0   2.0000     -20.374607      -554.4212
   1   2.0000     -11.299478      -307.4744
   2   2.0000     -11.196127      -304.6621
   3   2.0000     -11.187051      -304.4151
   4   2.0000      -1.393454       -37.9178
   5   2.0000      -1.101707       -29.9790
   6   2.0000      -0.898538       -24.4505
   7   2.0000      -0.766247       -20.8506
   8   2.0000      -0.698086       -18.9959
   9   2.0000      -0.617834       -16.8121
  10   2.0000      -0.614494       -16.7212
  11   2.0000      -0.551396       -15.0042
  12   2.0000      -0.500626       -13.6227
  13   2.0000      -0.421028       -11.4567
  14   2.0000      -0.406076       -11.0499
  15   0.0000       0.162043         4.4094
  16   0.0000       0.238815         6.4985
  17   0.0000       0.542087        14.7509
  18   0.0000       0.594735        16.1836
  19   0.0000       0.664187        18.0734

MULLIKEN ATOMIC CHARGES
-----------------------
   0 C :    0.172074
   1 O :   -0.337858
   2 C :   -0.179472
   3 C :   -0.241186
   4 H :    0.136652
   5 H :    0.153235
   6 H :    0.143583
   7 H :    0.152973
Sum of atomic charges:   -0.0000000

LOEWDIN ATOMIC CHARGES
----------------------
   0 C :    0.155109
   1 O :   -0.248119
   2 C :   -0.127308
   3 C :   -0.147920
   4 H :    0.077484
   5 H :    0.097609
   6 H :    0.083926
   7 H :    0.109220

  Mayer bond orders larger than 0.100000
B(  0-C ,  1-O ) :   1.9407 B(  0-C ,  2-C ) :   1.0090 B(  0-C ,  4-H ) :   0.9124
B(  2-C ,  3-C ) :   1.9798 B(  2-C ,  5-H ) :   0.9492 B(  3-C ,  6-H ) :   0.9676
B(  3-C ,  7-H ) :   0.9584

-----------------------------------------------------------------------------
         ABSORPTION SPECTRUM VIA TRANSITION ELECTRIC DIPOLE MOMENTS
-----------------------------------------------------------------------------
State   Energy    Wavelength  fosc         T2        TX        TY        TZ
        (cm-1)      (nm)                 (au**2)    (au)      (au)      (au)
-----------------------------------------------------------------------------
   1   33310.6    300.2   0.000115231   0.00114  -0.03347  -0.00006  -0.00432

Dispersion correction           -0.025601866
FINAL SINGLE POINT ENERGY      -189.307604289897

DIPOLE MOMENT
-------------
                                X             Y             Z
Electronic contribution:     -2.42050      -1.78477      -0.77022
Nuclear contribution   :      2.83232       2.69283       1.20147
                        -----------------------------------------
Total Dipole Moment    :      0.41181       0.90806       0.43126
                        -----------------------------------------
Magnitude (a.u.)       :      1.08635
Magnitude (Debye)      :      2.76127

Rotational constants in cm-1:     0.958897     0.177014     0.158905
Rotational constants in MHz : 28747.006664  5306.756511  4763.847502

                             ****ORCA TERMINATED NORMALLY****
TOTAL RUN TIME: 0 days 0 hours 0 minutes 11 seconds 167 msec
