                         Program Version 5.0.3 -  RELEASE  -
|  1> ! HF-3c
|  2> !TightSCF
|  3> %scf
|  4>  ConvForced true
|  5>  convergence tight
|  6>  MaxIter 500
|  7> end
|  8>
|  9> %tddft
| 10>  nroots 1
| 11> end
| 12>
| 13> # 	2227
| 14> * xyz 0 1
| 15> 		C   -1.188736  -0.237273   0.018629
| 16> 		O   -1.518452  -1.141170   0.693252
| 17> 		C    0.021704   0.547442   0.219301
| 18> 		C    1.259704   0.109610  -0.137860
| 19> 		H   -1.747253  -0.196195  -0.980849
| 20> 		H   -0.221777   1.521452   0.746586
| 21> 		H    1.208097  -1.052922  -0.574744
| 22> 		H    2.211685   0.456891  -0.016472
| 23> *
| 24>
| 25>                          ****END OF INPUT****

CARTESIAN COORDINATES (ANGSTROEM)
---------------------------------
  C     -1.188736   -0.237273    0.018629
  O     -1.518452   -1.141170    0.693252
  C      0.021704    0.547442    0.219301
  C      1.259704    0.109610   -0.137860
  H     -1.747253   -0.196195   -0.980849
  H     -0.221777    1.521452    0.746586
  H      1.208097   -1.052922   -0.574744
  H      2.211685    0.456891   -0.016472

 Total Charge           Charge          ....    0
 Multiplicity           Mult            ....    1
 Number of Electrons    NEL             ....   30
 Basis Dimension        Dim             ....   24

ORBITAL ENERGIES
----------------

  NO   OCC          E(Eh)            E(eV)
   0   2.0000     -20.379262      -554.5479
   1   2.0000     -11.304187      -307.6026
   2   2.0000     -11.190823      -304.5178
   3   2.0000     -11.182214      -304.2835
   4   2.0000      -1.433806       -39.0158
   5   2.0000      -1.065424       -28.9917
   6   2.0000      -0.881357       -23.9829
   7   2.0000      -0.755914       -20.5695
   8   2.0000      -0.673886       -18.3374
   9   2.0000      -0.657191       -17.8831
  10   2.0000      -0.606962       -16.5163
  11   2.0000      -0.529701       -14.4139
  12   2.0000      -0.497796       -13.5457
  13   2.0000      -0.406308       -11.0562
  14   2.0000      -0.391700       -10.6587
  15   0.0000       0.195548         5.3211
  16   0.0000       0.206398         5.6164
  17   0.0000       0.484598        13.1866
  18   0.0000       0.584420        15.9029
  19   0.0000       0.671235        18.2652

MULLIKEN ATOMIC CHARGES
-----------------------
   0 C :    0.169984
   1 O :   -0.348801
   2 C :   -0.162157
   3 C :   -0.226418
   4 H :    0.137382
   5 H :    0.147790
   6 H :    0.137504
   7 H :    0.144716
Sum of atomic charges:   -0.0000000

LOEWDIN ATOMIC CHARGES
----------------------
   0 C :    0.141326
   1 O :   -0.242724
   2 C :   -0.122058
   3 C :   -0.140947
   4 H :    0.075846
   5 H :    0.099671
   6 H :    0.100097
   7 H :    0.088790

  Mayer bond orders larger than 0.100000
B(  0-C ,  1-O ) :   1.9415 B(  0-C ,  2-C ) :   0.9965 B(  0-C ,  4-H ) :   0.9113
B(  2-C ,  3-C ) :   1.9913 B(  2-C ,  5-H ) :   0.9455 B(  3-C ,  6-H ) :   0.9593
B(  3-C ,  7-H ) :   0.9672

-----------------------------------------------------------------------------
         ABSORPTION SPECTRUM VIA TRANSITION ELECTRIC DIPOLE MOMENTS
-----------------------------------------------------------------------------
State   Energy    Wavelength  fosc         T2        TX        TY        TZ
        (cm-1)      (nm)                 (au**2)    (au)      (au)      (au)
-----------------------------------------------------------------------------
   1   35506.9    281.6   0.000208729   0.00194  -0.03123  -0.00411  -0.03071

Dispersion correction           -0.025139946
FINAL SINGLE POINT ENERGY      -189.282274945667

DIPOLE MOMENT
-------------
                                X             Y             Z
Electronic contribution:     -2.38273      -0.91488       1.01029
Nuclear contribution   :      2.79807       1.50596      -1.53438
                        -----------------------------------------
Total Dipole Moment    :      0.41534       0.59108      -0.52409
                        -----------------------------------------
Magnitude (a.u.)       :      0.89250
Magnitude (Debye)      :      2.26855

Rotational constants in cm-1:     0.911719     0.177833     0.163356
Rotational constants in MHz : 27332.645884  5331.313433  4897.284225

                             ****ORCA TERMINATED NORMALLY****
TOTAL RUN TIME: 0 days 0 hours 0 minutes 12 seconds 398 msec
