                         Program Version 5.0.3 -  RELEASE  -
|  1> ! HF-3c
|  2> !TightSCF
|  3> %scf
|  4>  ConvForced true
|  5>  convergence tight
|  6>  MaxIter 500
|  7> end
|  8>
|  9> %tddft
| 10>  nroots 1
| 11> end
| 12>
| 13> # 	25850
| 14> * xyz 0 1
| 15> 		C   -0.603584  -0.446885  -0.052760
| 16> 		O   -0.596059  -1.630714   0.036425
| 17> 		C    0.634150   0.406033   0.032109
| 18> 		C    1.888660  -0.106988  -0.008666
| 19> 		H   -1.660499  -0.071645  -0.150778
| 20> 		H    0.475160   1.560170   0.138590
| 21> 		H    1.973415  -1.125385  -0.260327
| 22> 		H    2.762289   0.511185   0.059611
| 23> *
| 24>
| 25>                          ****END OF INPUT****

CARTESIAN COORDINATES (ANGSTROEM)
---------------------------------
  C     -0.603584   -0.446885   -0.052760
  O     -0.596059   -1.630714    0.036425
  C      0.634150    0.406033    0.032109
  C      1.888660   -0.106988   -0.008666
  H     -1.660499   -0.071645   -0.150778
  H      0.475160    1.560170    0.138590
  H      1.973415   -1.125385   -0.260327
  H      2.762289    0.511185    0.059611

 Total Charge           Charge          ....    0
 Multiplicity           Mult            ....    1
 Number of Electrons    NEL             ....   30
 Basis Dimension        Dim             ....   24

ORBITAL ENERGIES
----------------

  NO   OCC          E(Eh)            E(eV)
   0   2.0000     -20.364256      -554.1396
   1   2.0000     -11.296698      -307.3988
   2   2.0000     -11.189668      -304.4863
   3   2.0000     -11.187776      -304.4349
   4   2.0000      -1.418796       -38.6074
   5   2.0000      -1.064650       -28.9706
   6   2.0000      -0.878312       -23.9001
   7   2.0000      -0.748225       -20.3602
   8   2.0000      -0.697705       -18.9855
   9   2.0000      -0.608844       -16.5675
  10   2.0000      -0.604074       -16.4377
  11   2.0000      -0.545343       -14.8395
  12   2.0000      -0.524391       -14.2694
  13   2.0000      -0.408320       -11.1110
  14   2.0000      -0.389752       -10.6057
  15   0.0000       0.135972         3.7000
  16   0.0000       0.306616         8.3434
  17   0.0000       0.507422        13.8077
  18   0.0000       0.567639        15.4462
  19   0.0000       0.683257        18.5924

MULLIKEN ATOMIC CHARGES
-----------------------
   0 C :    0.157322
   1 O :   -0.357794
   2 C :   -0.151212
   3 C :   -0.237008
   4 H :    0.142083
   5 H :    0.141960
   6 H :    0.156049
   7 H :    0.148601
Sum of atomic charges:    0.0000000

LOEWDIN ATOMIC CHARGES
----------------------
   0 C :    0.132625
   1 O :   -0.256137
   2 C :   -0.114793
   3 C :   -0.134344
   4 H :    0.079325
   5 H :    0.096492
   6 H :    0.099889
   7 H :    0.096944

  Mayer bond orders larger than 0.100000
B(  0-C ,  1-O ) :   1.9087 B(  0-C ,  2-C ) :   1.0129 B(  0-C ,  4-H ) :   0.9271
B(  2-C ,  3-C ) :   1.9540 B(  2-C ,  5-H ) :   0.9576 B(  3-C ,  6-H ) :   0.9611
B(  3-C ,  7-H ) :   0.9650

-----------------------------------------------------------------------------
         ABSORPTION SPECTRUM VIA TRANSITION ELECTRIC DIPOLE MOMENTS
-----------------------------------------------------------------------------
State   Energy    Wavelength  fosc         T2        TX        TY        TZ
        (cm-1)      (nm)                 (au**2)    (au)      (au)      (au)
-----------------------------------------------------------------------------
   1   32947.0    303.5   0.000019132   0.00019   0.00562   0.00424  -0.01190

Dispersion correction           -0.025174241
FINAL SINGLE POINT ENERGY      -189.330337674531

DIPOLE MOMENT
-------------
                                X             Y             Z
Electronic contribution:     -1.92625      -1.66673       0.11016
Nuclear contribution   :      2.17332       2.60949      -0.20028
                        -----------------------------------------
Total Dipole Moment    :      0.24708       0.94276      -0.09012
                        -----------------------------------------
Magnitude (a.u.)       :      0.97875
Magnitude (Debye)      :      2.48779

Rotational constants in cm-1:     0.784937     0.200435     0.160217
Rotational constants in MHz : 23531.807264  6008.879208  4803.171322

                             ****ORCA TERMINATED NORMALLY****
TOTAL RUN TIME: 0 days 0 hours 0 minutes 11 seconds 360 msec
