                         Program Version 5.0.3 -  RELEASE  -
|  1> ! HF-3c
|  2> !TightSCF
|  3> %scf
|  4>  ConvForced true
|  5>  convergence tight
|  6>  MaxIter 500
|  7> end
|  8>
|  9> %tddft
| 10>  nroots 1
| 11> end
| 12>
| 13> # 	32410
| 14> * xyz 0 1
| 15> 		C   -0.594125  -0.445818   0.010956
| 16> 		O   -0.624482  -1.685484  -0.012468
| 17> 		C    0.665877   0.458922  -0.059219
| 18> 		C    1.876271  -0.088882   0.045589
| 19> 		H   -1.515556   0.062408   0.286907
| 20> 		H    0.374664   1.399389   0.011641
| 21> 		H    2.052191  -1.050997  -0.050147
| 22> 		H    2.739800   0.487789  -0.023192
| 23> *
| 24>
| 25>                          ****END OF INPUT****

CARTESIAN COORDINATES (ANGSTROEM)
---------------------------------
  C     -0.594125   -0.445818    0.010956
  O     -0.624482   -1.685484   -0.012468
  C      0.665877    0.458922   -0.059219
  C      1.876271   -0.088882    0.045589
  H     -1.515556    0.062408    0.286907
  H      0.374664    1.399389    0.011641
  H      2.052191   -1.050997   -0.050147
  H      2.739800    0.487789   -0.023192

 Total Charge           Charge          ....    0
 Multiplicity           Mult            ....    1
 Number of Electrons    NEL             ....   30
 Basis Dimension        Dim             ....   24

ORBITAL ENERGIES
----------------

  NO   OCC          E(Eh)            E(eV)
   0   2.0000     -20.363379      -554.1157
   1   2.0000     -11.287909      -307.1596
   2   2.0000     -11.206598      -304.9470
   3   2.0000     -11.204486      -304.8896
   4   2.0000      -1.380819       -37.5740
   5   2.0000      -1.089776       -29.6543
   6   2.0000      -0.907567       -24.6961
   7   2.0000      -0.778048       -21.1718
   8   2.0000      -0.705545       -19.1988
   9   2.0000      -0.641933       -17.4679
  10   2.0000      -0.601606       -16.3705
  11   2.0000      -0.554535       -15.0897
  12   2.0000      -0.524324       -14.2676
  13   2.0000      -0.414301       -11.2737
  14   2.0000      -0.404960       -11.0195
  15   0.0000       0.125195         3.4067
  16   0.0000       0.276536         7.5249
  17   0.0000       0.511609        13.9216
  18   0.0000       0.681494        18.5444
  19   0.0000       0.714111        19.4319

MULLIKEN ATOMIC CHARGES
-----------------------
   0 C :    0.160873
   1 O :   -0.343790
   2 C :   -0.165367
   3 C :   -0.243526
   4 H :    0.135864
   5 H :    0.145492
   6 H :    0.159263
   7 H :    0.151190
Sum of atomic charges:   -0.0000000

LOEWDIN ATOMIC CHARGES
----------------------
   0 C :    0.146940
   1 O :   -0.256240
   2 C :   -0.109303
   3 C :   -0.130243
   4 H :    0.072223
   5 H :    0.084645
   6 H :    0.096007
   7 H :    0.095970

  Mayer bond orders larger than 0.100000
B(  0-C ,  1-O ) :   1.9240 B(  0-C ,  2-C ) :   0.9964 B(  0-C ,  4-H ) :   0.9328
B(  2-C ,  3-C ) :   1.9644 B(  2-C ,  5-H ) :   0.9645 B(  3-C ,  6-H ) :   0.9624
B(  3-C ,  7-H ) :   0.9633

-----------------------------------------------------------------------------
         ABSORPTION SPECTRUM VIA TRANSITION ELECTRIC DIPOLE MOMENTS
-----------------------------------------------------------------------------
State   Energy    Wavelength  fosc         T2        TX        TY        TZ
        (cm-1)      (nm)                 (au**2)    (au)      (au)      (au)
-----------------------------------------------------------------------------
   1   30753.2    325.2   0.000006309   0.00007   0.00082  -0.00447   0.00685

Dispersion correction           -0.025478609
FINAL SINGLE POINT ENERGY      -189.325964119397

DIPOLE MOMENT
-------------
                                X             Y             Z
Electronic contribution:     -1.99601      -1.68889      -0.15722
Nuclear contribution   :      2.26790       2.63052       0.21141
                        -----------------------------------------
Total Dipole Moment    :      0.27189       0.94163       0.05419
                        -----------------------------------------
Magnitude (a.u.)       :      0.98159
Magnitude (Debye)      :      2.49501

Rotational constants in cm-1:     0.772450     0.194979     0.156135
Rotational constants in MHz : 23157.462902  5845.321552  4680.824402

                             ****ORCA TERMINATED NORMALLY****
TOTAL RUN TIME: 0 days 0 hours 0 minutes 11 seconds 723 msec
