                         Program Version 5.0.3 -  RELEASE  -
|  1> ! HF-3c
|  2> !TightSCF
|  3> %scf
|  4>  ConvForced true
|  5>  convergence tight
|  6>  MaxIter 500
|  7> end
|  8>
|  9> %tddft
| 10>  nroots 1
| 11> end
| 12>
| 13> # 	31280
| 14> * xyz 0 1
| 15> 		C   -0.592683  -0.436461   0.026107
| 16> 		O   -0.583198  -1.660257  -0.011517
| 17> 		C    0.671922   0.477387  -0.071918
| 18> 		C    1.810513  -0.131674   0.034666
| 19> 		H   -1.610738  -0.070719   0.155845
| 20> 		H    0.469540   1.522034   0.158712
| 21> 		H    2.030688  -1.120756   0.016782
| 22> 		H    2.820857   0.346298  -0.012494
| 23> *
| 24>
| 25>                          ****END OF INPUT****

CARTESIAN COORDINATES (ANGSTROEM)
---------------------------------
  C     -0.592683   -0.436461    0.026107
  O     -0.583198   -1.660257   -0.011517
  C      0.671922    0.477387   -0.071918
  C      1.810513   -0.131674    0.034666
  H     -1.610738   -0.070719    0.155845
  H      0.469540    1.522034    0.158712
  H      2.030688   -1.120756    0.016782
  H      2.820857    0.346298   -0.012494

 Total Charge           Charge          ....    0
 Multiplicity           Mult            ....    1
 Number of Electrons    NEL             ....   30
 Basis Dimension        Dim             ....   24

ORBITAL ENERGIES
----------------

  NO   OCC          E(Eh)            E(eV)
   0   2.0000     -20.354992      -553.8875
   1   2.0000     -11.284366      -307.0632
   2   2.0000     -11.202199      -304.8273
   3   2.0000     -11.195725      -304.6512
   4   2.0000      -1.388740       -37.7895
   5   2.0000      -1.085337       -29.5335
   6   2.0000      -0.878201       -23.8971
   7   2.0000      -0.768748       -20.9187
   8   2.0000      -0.695520       -18.9261
   9   2.0000      -0.635250       -17.2860
  10   2.0000      -0.583812       -15.8863
  11   2.0000      -0.533363       -14.5135
  12   2.0000      -0.520405       -14.1609
  13   2.0000      -0.411860       -11.2073
  14   2.0000      -0.402739       -10.9591
  15   0.0000       0.143183         3.8962
  16   0.0000       0.289299         7.8722
  17   0.0000       0.471067        12.8184
  18   0.0000       0.606804        16.5120
  19   0.0000       0.697043        18.9675

MULLIKEN ATOMIC CHARGES
-----------------------
   0 C :    0.157277
   1 O :   -0.353458
   2 C :   -0.169746
   3 C :   -0.231606
   4 H :    0.140001
   5 H :    0.153761
   6 H :    0.157133
   7 H :    0.146638
Sum of atomic charges:    0.0000000

LOEWDIN ATOMIC CHARGES
----------------------
   0 C :    0.141042
   1 O :   -0.262782
   2 C :   -0.120975
   3 C :   -0.127005
   4 H :    0.075783
   5 H :    0.100287
   6 H :    0.096029
   7 H :    0.097621

  Mayer bond orders larger than 0.100000
B(  0-C ,  1-O ) :   1.9243 B(  0-C ,  2-C ) :   0.9833 B(  0-C ,  4-H ) :   0.9353
B(  2-C ,  3-C ) :   1.9778 B(  2-C ,  5-H ) :   0.9561 B(  3-C ,  6-H ) :   0.9600
B(  3-C ,  7-H ) :   0.9590

-----------------------------------------------------------------------------
         ABSORPTION SPECTRUM VIA TRANSITION ELECTRIC DIPOLE MOMENTS
-----------------------------------------------------------------------------
State   Energy    Wavelength  fosc         T2        TX        TY        TZ
        (cm-1)      (nm)                 (au**2)    (au)      (au)      (au)
-----------------------------------------------------------------------------
   1   32023.4    312.3   0.000150703   0.00155   0.03733   0.00379   0.01188

Dispersion correction           -0.025304420
FINAL SINGLE POINT ENERGY      -189.325795438966

DIPOLE MOMENT
-------------
                                X             Y             Z
Electronic contribution:     -2.00737      -1.50098      -0.19948
Nuclear contribution   :      2.32273       2.42285       0.29874
                        -----------------------------------------
Total Dipole Moment    :      0.31536       0.92187       0.09926
                        -----------------------------------------
Magnitude (a.u.)       :      0.97936
Magnitude (Debye)      :      2.48934

Rotational constants in cm-1:     0.752157     0.205084     0.161569
Rotational constants in MHz : 22549.100802  6148.264114  4843.714267

                             ****ORCA TERMINATED NORMALLY****
TOTAL RUN TIME: 0 days 0 hours 0 minutes 12 seconds 699 msec
