                         Program Version 5.0.3 -  RELEASE  -
|  1> ! HF-3c
|  2> !TightSCF
|  3> %scf
|  4>  ConvForced true
|  5>  convergence tight
|  6>  MaxIter 500
|  7> end
|  8>
|  9> %tddft
| 10>  nroots 1
| 11> end
| 12>
| 13> # 	18812
| 14> * xyz 0 1
| 15> 		C   -1.185839  -0.282872  -0.106876
| 16> 		O   -1.867573  -0.789429  -0.991616
| 17> 		C    0.069334   0.392571  -0.326963
| 18> 		C    1.177453   0.045889   0.309229
| 19> 		H   -1.567881  -0.450242   1.247838
| 20> 		H    0.088884   1.061455  -1.241228
| 21> 		H    1.172947  -0.639499   0.988573
| 22> 		H    2.122413   0.602829   0.119982
| 23> *
| 24>
| 25>                          ****END OF INPUT****

CARTESIAN COORDINATES (ANGSTROEM)
---------------------------------
  C     -1.185839   -0.282872   -0.106876
  O     -1.867573   -0.789429   -0.991616
  C      0.069334    0.392571   -0.326963
  C      1.177453    0.045889    0.309229
  H     -1.567881   -0.450242    1.247838
  H      0.088884    1.061455   -1.241228
  H      1.172947   -0.639499    0.988573
  H      2.122413    0.602829    0.119982

 Total Charge           Charge          ....    0
 Multiplicity           Mult            ....    1
 Number of Electrons    NEL             ....   30
 Basis Dimension        Dim             ....   24

ORBITAL ENERGIES
----------------

  NO   OCC          E(Eh)            E(eV)
   0   2.0000     -20.359286      -554.0043
   1   2.0000     -11.288534      -307.1766
   2   2.0000     -11.202363      -304.8318
   3   2.0000     -11.195805      -304.6533
   4   2.0000      -1.386792       -37.7365
   5   2.0000      -1.096923       -29.8488
   6   2.0000      -0.886220       -24.1153
   7   2.0000      -0.748594       -20.3703
   8   2.0000      -0.651545       -17.7294
   9   2.0000      -0.646623       -17.5955
  10   2.0000      -0.579343       -15.7647
  11   2.0000      -0.554014       -15.0755
  12   2.0000      -0.507658       -13.8141
  13   2.0000      -0.403739       -10.9863
  14   2.0000      -0.383442       -10.4340
  15   0.0000       0.140924         3.8347
  16   0.0000       0.269628         7.3370
  17   0.0000       0.386396        10.5144
  18   0.0000       0.567524        15.4431
  19   0.0000       0.668773        18.1982

MULLIKEN ATOMIC CHARGES
-----------------------
   0 C :    0.192452
   1 O :   -0.357992
   2 C :   -0.162344
   3 C :   -0.252222
   4 H :    0.122897
   5 H :    0.163206
   6 H :    0.139698
   7 H :    0.154306
Sum of atomic charges:    0.0000000

LOEWDIN ATOMIC CHARGES
----------------------
   0 C :    0.150192
   1 O :   -0.266266
   2 C :   -0.114370
   3 C :   -0.150130
   4 H :    0.083881
   5 H :    0.111342
   6 H :    0.080715
   7 H :    0.104636

  Mayer bond orders larger than 0.100000
B(  0-C ,  1-O ) :   1.9243 B(  0-C ,  2-C ) :   1.0258 B(  0-C ,  4-H ) :   0.8808
B(  2-C ,  3-C ) :   1.9620 B(  2-C ,  5-H ) :   0.9438 B(  3-C ,  6-H ) :   0.9687
B(  3-C ,  7-H ) :   0.9610

-----------------------------------------------------------------------------
         ABSORPTION SPECTRUM VIA TRANSITION ELECTRIC DIPOLE MOMENTS
-----------------------------------------------------------------------------
State   Energy    Wavelength  fosc         T2        TX        TY        TZ
        (cm-1)      (nm)                 (au**2)    (au)      (au)      (au)
-----------------------------------------------------------------------------
   1   32490.6    307.8   0.000161402   0.00164   0.00191   0.02091  -0.03456

Dispersion correction           -0.025917321
FINAL SINGLE POINT ENERGY      -189.276188184019

DIPOLE MOMENT
-------------
                                X             Y             Z
Electronic contribution:     -2.75937      -0.74693      -1.45913
Nuclear contribution   :      3.51211       1.21159       2.12271
                        -----------------------------------------
Total Dipole Moment    :      0.75273       0.46466       0.66358
                        -----------------------------------------
Magnitude (a.u.)       :      1.10583
Magnitude (Debye)      :      2.81078

Rotational constants in cm-1:     1.202455     0.159725     0.151807
Rotational constants in MHz : 36048.683560  4788.430848  4551.072387

                             ****ORCA TERMINATED NORMALLY****
TOTAL RUN TIME: 0 days 0 hours 0 minutes 13 seconds 1 msec
