                         Program Version 5.0.3 -  RELEASE  -
|  1> ! HF-3c
|  2> !TightSCF
|  3> %scf
|  4>  ConvForced true
|  5>  convergence tight
|  6>  MaxIter 500
|  7> end
|  8>
|  9> %tddft
| 10>  nroots 1
| 11> end
| 12>
| 13> # 	11638
| 14> * xyz 0 1
| 15> 		C   -1.161281  -0.457723   0.042481
| 16> 		O   -2.256072  -0.393147   0.417814
| 17> 		C    0.009987   0.380546   0.370690
| 18> 		C    1.210287   0.145886  -0.211327
| 19> 		H   -1.022025  -1.033148  -0.775181
| 20> 		H   -0.195432   1.279315   1.216331
| 21> 		H    1.323999  -0.729170  -1.044543
| 22> 		H    2.145833   0.872828  -0.040980
| 23> *
| 24>
| 25>                          ****END OF INPUT****

CARTESIAN COORDINATES (ANGSTROEM)
---------------------------------
  C     -1.161281   -0.457723    0.042481
  O     -2.256072   -0.393147    0.417814
  C      0.009987    0.380546    0.370690
  C      1.210287    0.145886   -0.211327
  H     -1.022025   -1.033148   -0.775181
  H     -0.195432    1.279315    1.216331
  H      1.323999   -0.729170   -1.044543
  H      2.145833    0.872828   -0.040980

 Total Charge           Charge          ....    0
 Multiplicity           Mult            ....    1
 Number of Electrons    NEL             ....   30
 Basis Dimension        Dim             ....   24

ORBITAL ENERGIES
----------------

  NO   OCC          E(Eh)            E(eV)
   0   2.0000     -20.377744      -554.5066
   1   2.0000     -11.306487      -307.6652
   2   2.0000     -11.186059      -304.3881
   3   2.0000     -11.179508      -304.2099
   4   2.0000      -1.440449       -39.1966
   5   2.0000      -1.063698       -28.9447
   6   2.0000      -0.867696       -23.6112
   7   2.0000      -0.773545       -21.0492
   8   2.0000      -0.650503       -17.7011
   9   2.0000      -0.631412       -17.1816
  10   2.0000      -0.572404       -15.5759
  11   2.0000      -0.557092       -15.1592
  12   2.0000      -0.507628       -13.8133
  13   2.0000      -0.404579       -11.0092
  14   2.0000      -0.386839       -10.5264
  15   0.0000       0.141454         3.8491
  16   0.0000       0.317948         8.6518
  17   0.0000       0.454660        12.3719
  18   0.0000       0.520128        14.1534
  19   0.0000       0.575599        15.6628

MULLIKEN ATOMIC CHARGES
-----------------------
   0 C :    0.157032
   1 O :   -0.356166
   2 C :   -0.164293
   3 C :   -0.204261
   4 H :    0.127293
   5 H :    0.152853
   6 H :    0.141439
   7 H :    0.146103
Sum of atomic charges:    0.0000000

LOEWDIN ATOMIC CHARGES
----------------------
   0 C :    0.135217
   1 O :   -0.244502
   2 C :   -0.138155
   3 C :   -0.124060
   4 H :    0.055317
   5 H :    0.111643
   6 H :    0.100913
   7 H :    0.103628

  Mayer bond orders larger than 0.100000
B(  0-C ,  1-O ) :   1.9051 B(  0-C ,  2-C ) :   1.0179 B(  0-C ,  4-H ) :   0.9286
B(  2-C ,  3-C ) :   1.9472 B(  2-C ,  5-H ) :   0.9471 B(  3-C ,  6-H ) :   0.9559
B(  3-C ,  7-H ) :   0.9591

-----------------------------------------------------------------------------
         ABSORPTION SPECTRUM VIA TRANSITION ELECTRIC DIPOLE MOMENTS
-----------------------------------------------------------------------------
State   Energy    Wavelength  fosc         T2        TX        TY        TZ
        (cm-1)      (nm)                 (au**2)    (au)      (au)      (au)
-----------------------------------------------------------------------------
   1   34647.5    288.6   0.000109165   0.00104   0.01708   0.01650   0.02175

Dispersion correction           -0.025043696
FINAL SINGLE POINT ENERGY      -189.280510372122

DIPOLE MOMENT
-------------
                                X             Y             Z
Electronic contribution:     -3.13868      -0.57516       0.83804
Nuclear contribution   :      4.30515       0.70073      -1.16683
                        -----------------------------------------
Total Dipole Moment    :      1.16646       0.12557      -0.32879
                        -----------------------------------------
Magnitude (a.u.)       :      1.21840
Magnitude (Debye)      :      3.09694

Rotational constants in cm-1:     1.548005     0.153528     0.139789
Rotational constants in MHz : 46408.021814  4602.640510  4190.774095

                             ****ORCA TERMINATED NORMALLY****
TOTAL RUN TIME: 0 days 0 hours 0 minutes 12 seconds 947 msec
