                         Program Version 5.0.3 -  RELEASE  -
|  1> ! B3LYP cc-pVDZ
|  2> !TightSCF
|  3> %scf
|  4>  ConvForced true
|  5>  convergence tight
|  6>  MaxIter 500
|  7> end
|  8>
|  9> %tddft
| 10>  nroots 1
| 11> end
| 12>
| 13> # 	2447
| 14> * xyz 0 1
| 15> 		C   -1.199633  -0.221069   0.059068
| 16> 		O   -1.428696  -1.153870   0.763628
| 17> 		C    0.021523   0.572426   0.104120
| 18> 		C    1.231907  -0.012474  -0.160956
| 19> 		H   -1.851350  -0.225200  -0.826239
| 20> 		H   -0.103361   1.656087   0.403749
| 21> 		H    1.204025  -1.148809  -0.291223
| 22> 		H    2.149559   0.519085  -0.019944
| 23> *
| 24>
| 25>                          ****END OF INPUT****

CARTESIAN COORDINATES (ANGSTROEM)
---------------------------------
  C     -1.199633   -0.221069    0.059068
  O     -1.428696   -1.153870    0.763628
  C      0.021523    0.572426    0.104120
  C      1.231907   -0.012474   -0.160956
  H     -1.851350   -0.225200   -0.826239
  H     -0.103361    1.656087    0.403749
  H      1.204025   -1.148809   -0.291223
  H      2.149559    0.519085   -0.019944

 Total Charge           Charge          ....    0
 Multiplicity           Mult            ....    1
 Number of Electrons    NEL             ....   30
 Basis Dimension        Dim             ....   76

ORBITAL ENERGIES
----------------

  NO   OCC          E(Eh)            E(eV)
   0   2.0000     -19.138035      -520.7724
   1   2.0000     -10.272171      -279.5200
   2   2.0000     -10.214900      -277.9616
   3   2.0000     -10.213644      -277.9274
   4   2.0000      -1.060374       -28.8543
   5   2.0000      -0.790370       -21.5071
   6   2.0000      -0.651252       -17.7215
   7   2.0000      -0.549909       -14.9638
   8   2.0000      -0.500413       -13.6169
   9   2.0000      -0.457301       -12.4438
  10   2.0000      -0.438653       -11.9364
  11   2.0000      -0.392855       -10.6901
  12   2.0000      -0.374741       -10.1972
  13   2.0000      -0.282983        -7.7004
  14   2.0000      -0.250199        -6.8083
  15   0.0000      -0.041323        -1.1245
  16   0.0000      -0.008394        -0.2284
  17   0.0000       0.079257         2.1567
  18   0.0000       0.087552         2.3824
  19   0.0000       0.107064         2.9134

MULLIKEN ATOMIC CHARGES
-----------------------
   0 C :    0.157741
   1 O :   -0.171443
   2 C :   -0.100379
   3 C :    0.026391
   4 H :   -0.016999
   5 H :    0.026446
   6 H :    0.045506
   7 H :    0.032736
Sum of atomic charges:   -0.0000000

LOEWDIN ATOMIC CHARGES
----------------------
   0 C :   -0.048324
   1 O :    0.022737
   2 C :   -0.061556
   3 C :   -0.017146
   4 H :   -0.005543
   5 H :    0.040588
   6 H :    0.043920
   7 H :    0.025324

  Mayer bond orders larger than 0.100000
B(  0-C ,  1-O ) :   2.2307 B(  0-C ,  2-C ) :   0.9905 B(  0-C ,  4-H ) :   0.9295
B(  2-C ,  3-C ) :   2.0135 B(  2-C ,  5-H ) :   0.9348 B(  3-C ,  6-H ) :   0.9392
B(  3-C ,  7-H ) :   0.9484

-----------------------------------------------------------------------------
         ABSORPTION SPECTRUM VIA TRANSITION ELECTRIC DIPOLE MOMENTS
-----------------------------------------------------------------------------
State   Energy    Wavelength  fosc         T2        TX        TY        TZ
        (cm-1)      (nm)                 (au**2)    (au)      (au)      (au)
-----------------------------------------------------------------------------
   1   31640.8    316.0   0.000189159   0.00197   0.03207   0.01963   0.02354

FINAL SINGLE POINT ENERGY      -191.640603221932

DIPOLE MOMENT
-------------
                                X             Y             Z
Electronic contribution:     -2.27925      -0.98262       1.04412
Nuclear contribution   :      2.68912       1.64733      -1.45011
                        -----------------------------------------
Total Dipole Moment    :      0.40987       0.66471      -0.40599
                        -----------------------------------------
Magnitude (a.u.)       :      0.88015
Magnitude (Debye)      :      2.23716

Rotational constants in cm-1:     0.837194     0.189330     0.165929
Rotational constants in MHz : 25098.455215  5675.967780  4974.431803

                             ****ORCA TERMINATED NORMALLY****
TOTAL RUN TIME: 0 days 0 hours 3 minutes 20 seconds 642 msec
