                         Program Version 5.0.3 -  RELEASE  -
|  1> ! B3LYP cc-pVDZ
|  2> !TightSCF
|  3> %scf
|  4>  ConvForced true
|  5>  convergence tight
|  6>  MaxIter 500
|  7> end
|  8>
|  9> %tddft
| 10>  nroots 1
| 11> end
| 12>
| 13> # 	18284
| 14> * xyz 0 1
| 15> 		C   -1.237865  -0.378601   0.005968
| 16> 		O   -1.412833  -1.536618  -0.340376
| 17> 		C   -0.015609   0.463946  -0.187556
| 18> 		C    1.198975   0.021073   0.003339
| 19> 		H   -2.047265   0.206260   0.347053
| 20> 		H   -0.196356   1.514577  -0.365436
| 21> 		H    1.439208  -0.919792   0.430717
| 22> 		H    2.194872   0.642597   0.066182
| 23> *
| 24>
| 25>                          ****END OF INPUT****

CARTESIAN COORDINATES (ANGSTROEM)
---------------------------------
  C     -1.237865   -0.378601    0.005968
  O     -1.412833   -1.536618   -0.340376
  C     -0.015609    0.463946   -0.187556
  C      1.198975    0.021073    0.003339
  H     -2.047265    0.206260    0.347053
  H     -0.196356    1.514577   -0.365436
  H      1.439208   -0.919792    0.430717
  H      2.194872    0.642597    0.066182

 Total Charge           Charge          ....    0
 Multiplicity           Mult            ....    1
 Number of Electrons    NEL             ....   30
 Basis Dimension        Dim             ....   76

ORBITAL ENERGIES
----------------

  NO   OCC          E(Eh)            E(eV)
   0   2.0000     -19.140921      -520.8509
   1   2.0000     -10.274426      -279.5814
   2   2.0000     -10.213480      -277.9229
   3   2.0000     -10.205664      -277.7102
   4   2.0000      -1.040515       -28.3139
   5   2.0000      -0.800915       -21.7940
   6   2.0000      -0.662034       -18.0148
   7   2.0000      -0.557031       -15.1576
   8   2.0000      -0.501418       -13.6443
   9   2.0000      -0.454164       -12.3584
  10   2.0000      -0.433017       -11.7830
  11   2.0000      -0.387798       -10.5525
  12   2.0000      -0.371584       -10.1113
  13   2.0000      -0.294483        -8.0133
  14   2.0000      -0.255043        -6.9401
  15   0.0000      -0.061101        -1.6627
  16   0.0000       0.032115         0.8739
  17   0.0000       0.064618         1.7584
  18   0.0000       0.094700         2.5769
  19   0.0000       0.126333         3.4377

MULLIKEN ATOMIC CHARGES
-----------------------
   0 C :    0.208792
   1 O :   -0.195646
   2 C :   -0.082652
   3 C :    0.030182
   4 H :   -0.027486
   5 H :    0.000849
   6 H :    0.023053
   7 H :    0.042908
Sum of atomic charges:   -0.0000000

LOEWDIN ATOMIC CHARGES
----------------------
   0 C :   -0.014655
   1 O :   -0.006779
   2 C :   -0.072655
   3 C :    0.002190
   4 H :   -0.012523
   5 H :    0.034106
   6 H :    0.023967
   7 H :    0.046349

  Mayer bond orders larger than 0.100000
B(  0-C ,  1-O ) :   2.2052 B(  0-C ,  2-C ) :   1.0353 B(  0-C ,  4-H ) :   0.9182
B(  2-C ,  3-C ) :   1.9743 B(  2-C ,  5-H ) :   0.9355 B(  3-C ,  6-H ) :   0.9476
B(  3-C ,  7-H ) :   0.9498

-----------------------------------------------------------------------------
         ABSORPTION SPECTRUM VIA TRANSITION ELECTRIC DIPOLE MOMENTS
-----------------------------------------------------------------------------
State   Energy    Wavelength  fosc         T2        TX        TY        TZ
        (cm-1)      (nm)                 (au**2)    (au)      (au)      (au)
-----------------------------------------------------------------------------
   1   29144.0    343.1   0.000313688   0.00354  -0.05636  -0.01836  -0.00549

FINAL SINGLE POINT ENERGY      -191.658436667695

DIPOLE MOMENT
-------------
                                X             Y             Z
Electronic contribution:     -2.30637      -1.89619      -0.60253
Nuclear contribution   :      2.75238       2.80005       0.92131
                        -----------------------------------------
Total Dipole Moment    :      0.44602       0.90386       0.31878
                        -----------------------------------------
Magnitude (a.u.)       :      1.05713
Magnitude (Debye)      :      2.68701

Rotational constants in cm-1:     0.859415     0.185113     0.156160
Rotational constants in MHz : 25764.619951  5549.561691  4681.550663

                             ****ORCA TERMINATED NORMALLY****
TOTAL RUN TIME: 0 days 0 hours 3 minutes 22 seconds 933 msec
