                         Program Version 5.0.3 -  RELEASE  -
|  1> ! HF-3c
|  2> !TightSCF
|  3> %scf
|  4>  ConvForced true
|  5>  convergence tight
|  6>  MaxIter 500
|  7> end
|  8>
|  9> %tddft
| 10>  nroots 1
| 11> end
| 12>
| 13> # 	21328
| 14> * xyz 0 1
| 15> 		C   -0.567354  -0.403760   0.054674
| 16> 		O   -0.594228  -1.670955  -0.037068
| 17> 		C    0.622575   0.426914  -0.045480
| 18> 		C    1.882218  -0.125671   0.034030
| 19> 		H   -1.628941   0.111121   0.111950
| 20> 		H    0.405387   1.464922  -0.041336
| 21> 		H    1.904482  -1.202804   0.227945
| 22> 		H    2.628969   0.618384  -0.245991
| 23> *
| 24>
| 25>                          ****END OF INPUT****

CARTESIAN COORDINATES (ANGSTROEM)
---------------------------------
  C     -0.567354   -0.403760    0.054674
  O     -0.594228   -1.670955   -0.037068
  C      0.622575    0.426914   -0.045480
  C      1.882218   -0.125671    0.034030
  H     -1.628941    0.111121    0.111950
  H      0.405387    1.464922   -0.041336
  H      1.904482   -1.202804    0.227945
  H      2.628969    0.618384   -0.245991

 Total Charge           Charge          ....    0
 Multiplicity           Mult            ....    1
 Number of Electrons    NEL             ....   30
 Basis Dimension        Dim             ....   24

ORBITAL ENERGIES
----------------

  NO   OCC          E(Eh)            E(eV)
   0   2.0000     -20.332612      -553.2785
   1   2.0000     -11.270548      -306.6872
   2   2.0000     -11.196192      -304.6639
   3   2.0000     -11.185695      -304.3782
   4   2.0000      -1.348589       -36.6970
   5   2.0000      -1.074318       -29.2337
   6   2.0000      -0.889876       -24.2148
   7   2.0000      -0.730335       -19.8734
   8   2.0000      -0.695048       -18.9132
   9   2.0000      -0.599879       -16.3235
  10   2.0000      -0.577174       -15.7057
  11   2.0000      -0.532608       -14.4930
  12   2.0000      -0.509895       -13.8750
  13   2.0000      -0.404356       -11.0031
  14   2.0000      -0.374670       -10.1953
  15   0.0000       0.113543         3.0897
  16   0.0000       0.297863         8.1053
  17   0.0000       0.539601        14.6833
  18   0.0000       0.569425        15.4949
  19   0.0000       0.654291        17.8042

MULLIKEN ATOMIC CHARGES
-----------------------
   0 C :    0.145554
   1 O :   -0.357115
   2 C :   -0.183230
   3 C :   -0.212909
   4 H :    0.133302
   5 H :    0.140817
   6 H :    0.175062
   7 H :    0.158521
Sum of atomic charges:    0.0000000

LOEWDIN ATOMIC CHARGES
----------------------
   0 C :    0.135310
   1 O :   -0.281260
   2 C :   -0.136452
   3 C :   -0.109059
   4 H :    0.078660
   5 H :    0.087377
   6 H :    0.118798
   7 H :    0.106627

  Mayer bond orders larger than 0.100000
B(  0-C ,  1-O ) :   1.8748 B(  0-C ,  2-C ) :   1.0628 B(  0-C ,  4-H ) :   0.9285
B(  2-C ,  3-C ) :   1.9107 B(  2-C ,  5-H ) :   0.9622 B(  3-C ,  6-H ) :   0.9553
B(  3-C ,  7-H ) :   0.9627

-----------------------------------------------------------------------------
         ABSORPTION SPECTRUM VIA TRANSITION ELECTRIC DIPOLE MOMENTS
-----------------------------------------------------------------------------
State   Energy    Wavelength  fosc         T2        TX        TY        TZ
        (cm-1)      (nm)                 (au**2)    (au)      (au)      (au)
-----------------------------------------------------------------------------
   1   28659.3    348.9   0.000094241   0.00108   0.02536   0.00131   0.02093

Dispersion correction           -0.025639983
FINAL SINGLE POINT ENERGY      -189.338611408112

DIPOLE MOMENT
-------------
                                X             Y             Z
Electronic contribution:     -1.56323      -1.71902       0.00760
Nuclear contribution   :      1.94737       2.71768       0.05017
                        -----------------------------------------
Total Dipole Moment    :      0.38413       0.99866       0.05777
                        -----------------------------------------
Magnitude (a.u.)       :      1.07154
Magnitude (Debye)      :      2.72365

Rotational constants in cm-1:     0.731654     0.204494     0.160507
Rotational constants in MHz : 21934.439561  6130.575379  4811.864270

                             ****ORCA TERMINATED NORMALLY****
TOTAL RUN TIME: 0 days 0 hours 0 minutes 11 seconds 677 msec
