                         Program Version 5.0.3 -  RELEASE  -
|  1> ! B3LYP cc-pVDZ
|  2> !TightSCF
|  3> %scf
|  4>  ConvForced true
|  5>  convergence tight
|  6>  MaxIter 500
|  7> end
|  8>
|  9> %tddft
| 10>  nroots 1
| 11> end
| 12>
| 13> # 	23776
| 14> * xyz 0 1
| 15> 		C   -0.541209  -0.441455   0.096298
| 16> 		O   -0.552670  -1.606222  -0.063361
| 17> 		C    0.598352   0.477781  -0.054829
| 18> 		C    1.835236  -0.202504   0.027617
| 19> 		H   -1.458860   0.038419   0.182975
| 20> 		H    0.321621   1.577592  -0.221999
| 21> 		H    1.689089  -1.434330   0.395262
| 22> 		H    2.640602   0.524627  -0.204034
| 23> *
| 24>
| 25>                          ****END OF INPUT****

CARTESIAN COORDINATES (ANGSTROEM)
---------------------------------
  C     -0.541209   -0.441455    0.096298
  O     -0.552670   -1.606222   -0.063361
  C      0.598352    0.477781   -0.054829
  C      1.835236   -0.202504    0.027617
  H     -1.458860    0.038419    0.182975
  H      0.321621    1.577592   -0.221999
  H      1.689089   -1.434330    0.395262
  H      2.640602    0.524627   -0.204034

 Total Charge           Charge          ....    0
 Multiplicity           Mult            ....    1
 Number of Electrons    NEL             ....   30
 Basis Dimension        Dim             ....   76

ORBITAL ENERGIES
----------------

  NO   OCC          E(Eh)            E(eV)
   0   2.0000     -19.132817      -520.6304
   1   2.0000     -10.257641      -279.1246
   2   2.0000     -10.236287      -278.5435
   3   2.0000     -10.210861      -277.8517
   4   2.0000      -1.063426       -28.9373
   5   2.0000      -0.779563       -21.2130
   6   2.0000      -0.649623       -17.6771
   7   2.0000      -0.532134       -14.4801
   8   2.0000      -0.504857       -13.7378
   9   2.0000      -0.440494       -11.9864
  10   2.0000      -0.409635       -11.1467
  11   2.0000      -0.396977       -10.8023
  12   2.0000      -0.380932       -10.3657
  13   2.0000      -0.276587        -7.5263
  14   2.0000      -0.249547        -6.7905
  15   0.0000      -0.068162        -1.8548
  16   0.0000       0.043078         1.1722
  17   0.0000       0.056990         1.5508
  18   0.0000       0.067187         1.8283
  19   0.0000       0.126600         3.4450

MULLIKEN ATOMIC CHARGES
-----------------------
   0 C :    0.217736
   1 O :   -0.178493
   2 C :   -0.148253
   3 C :   -0.014758
   4 H :   -0.059444
   5 H :    0.024083
   6 H :    0.111917
   7 H :    0.047212
Sum of atomic charges:    0.0000000

LOEWDIN ATOMIC CHARGES
----------------------
   0 C :   -0.067950
   1 O :    0.024787
   2 C :   -0.090083
   3 C :   -0.009241
   4 H :   -0.022916
   5 H :    0.040360
   6 H :    0.088737
   7 H :    0.036307

  Mayer bond orders larger than 0.100000
B(  0-C ,  1-O ) :   2.1958 B(  0-C ,  2-C ) :   1.0730 B(  0-C ,  4-H ) :   0.9306
B(  2-C ,  3-C ) :   1.8971 B(  2-C ,  5-H ) :   0.9471 B(  3-C ,  6-H ) :   0.8988
B(  3-C ,  7-H ) :   0.9406

-----------------------------------------------------------------------------
         ABSORPTION SPECTRUM VIA TRANSITION ELECTRIC DIPOLE MOMENTS
-----------------------------------------------------------------------------
State   Energy    Wavelength  fosc         T2        TX        TY        TZ
        (cm-1)      (nm)                 (au**2)    (au)      (au)      (au)
-----------------------------------------------------------------------------
   1   27605.6    362.2   0.000201688   0.00241   0.01066  -0.01678  -0.04483

FINAL SINGLE POINT ENERGY      -191.631961131445

DIPOLE MOMENT
-------------
                                X             Y             Z
Electronic contribution:     -1.52252      -1.59964      -0.05501
Nuclear contribution   :      1.83744       2.45207       0.14391
                        -----------------------------------------
Total Dipole Moment    :      0.31492       0.85244       0.08890
                        -----------------------------------------
Magnitude (a.u.)       :      0.91309
Magnitude (Debye)      :      2.32088

Rotational constants in cm-1:     0.704385     0.222121     0.170581
Rotational constants in MHz : 21116.938397  6659.005771  5113.895980

                             ****ORCA TERMINATED NORMALLY****
TOTAL RUN TIME: 0 days 0 hours 3 minutes 23 seconds 632 msec
