                         Program Version 5.0.3 -  RELEASE  -
|  1> ! B3LYP cc-pVDZ
|  2> !TightSCF
|  3> %scf
|  4>  ConvForced true
|  5>  convergence tight
|  6>  MaxIter 500
|  7> end
|  8>
|  9> %tddft
| 10>  nroots 1
| 11> end
| 12>
| 13> # 	26409
| 14> * xyz 0 1
| 15> 		C   -0.607396  -0.452392   0.070272
| 16> 		O   -0.613430  -1.659185  -0.042833
| 17> 		C    0.611159   0.394687  -0.028376
| 18> 		C    1.901439  -0.055801  -0.004028
| 19> 		H   -1.704342   0.095347   0.147310
| 20> 		H    0.566558   1.498094  -0.269204
| 21> 		H    2.169024  -1.096336   0.242407
| 22> 		H    2.955086   0.445874   0.095068
| 23> *
| 24>
| 25>                          ****END OF INPUT****

CARTESIAN COORDINATES (ANGSTROEM)
---------------------------------
  C     -0.607396   -0.452392    0.070272
  O     -0.613430   -1.659185   -0.042833
  C      0.611159    0.394687   -0.028376
  C      1.901439   -0.055801   -0.004028
  H     -1.704342    0.095347    0.147310
  H      0.566558    1.498094   -0.269204
  H      2.169024   -1.096336    0.242407
  H      2.955086    0.445874    0.095068

 Total Charge           Charge          ....    0
 Multiplicity           Mult            ....    1
 Number of Electrons    NEL             ....   30
 Basis Dimension        Dim             ....   76

ORBITAL ENERGIES
----------------

  NO   OCC          E(Eh)            E(eV)
   0   2.0000     -19.143462      -520.9201
   1   2.0000     -10.290686      -280.0238
   2   2.0000     -10.227870      -278.3145
   3   2.0000     -10.221216      -278.1334
   4   2.0000      -1.049400       -28.5556
   5   2.0000      -0.786541       -21.4029
   6   2.0000      -0.649863       -17.6837
   7   2.0000      -0.544139       -14.8068
   8   2.0000      -0.493641       -13.4327
   9   2.0000      -0.451084       -12.2746
  10   2.0000      -0.420011       -11.4291
  11   2.0000      -0.399278       -10.8649
  12   2.0000      -0.360198        -9.8015
  13   2.0000      -0.288315        -7.8454
  14   2.0000      -0.257874        -7.0171
  15   0.0000      -0.075821        -2.0632
  16   0.0000       0.042159         1.1472
  17   0.0000       0.058912         1.6031
  18   0.0000       0.083013         2.2589
  19   0.0000       0.102325         2.7844

MULLIKEN ATOMIC CHARGES
-----------------------
   0 C :    0.150157
   1 O :   -0.176509
   2 C :   -0.082374
   3 C :   -0.001630
   4 H :   -0.003032
   5 H :    0.019259
   6 H :    0.037239
   7 H :    0.056889
Sum of atomic charges:   -0.0000000

LOEWDIN ATOMIC CHARGES
----------------------
   0 C :   -0.043392
   1 O :   -0.000893
   2 C :   -0.089239
   3 C :    0.009022
   4 H :    0.004192
   5 H :    0.041029
   6 H :    0.028797
   7 H :    0.050484

  Mayer bond orders larger than 0.100000
B(  0-C ,  1-O ) :   2.1979 B(  0-C ,  2-C ) :   1.0099 B(  0-C ,  4-H ) :   0.8970
B(  2-C ,  3-C ) :   1.9207 B(  2-C ,  5-H ) :   0.9398 B(  3-C ,  6-H ) :   0.9518
B(  3-C ,  7-H ) :   0.9573

-----------------------------------------------------------------------------
         ABSORPTION SPECTRUM VIA TRANSITION ELECTRIC DIPOLE MOMENTS
-----------------------------------------------------------------------------
State   Energy    Wavelength  fosc         T2        TX        TY        TZ
        (cm-1)      (nm)                 (au**2)    (au)      (au)      (au)
-----------------------------------------------------------------------------
   1   27501.4    363.6   0.000077307   0.00093   0.00455   0.00953  -0.02853

FINAL SINGLE POINT ENERGY      -191.659480535439

DIPOLE MOMENT
-------------
                                X             Y             Z
Electronic contribution:     -2.08459      -1.84102      -0.11942
Nuclear contribution   :      2.58254       2.67172       0.20250
                        -----------------------------------------
Total Dipole Moment    :      0.49795       0.83070       0.08309
                        -----------------------------------------
Magnitude (a.u.)       :      0.97207
Magnitude (Debye)      :      2.47081

Rotational constants in cm-1:     0.768982     0.192254     0.154540
Rotational constants in MHz : 23053.487736  5763.642583  4633.002010

                             ****ORCA TERMINATED NORMALLY****
TOTAL RUN TIME: 0 days 0 hours 3 minutes 21 seconds 370 msec
