                         Program Version 5.0.3 -  RELEASE  -
|  1> ! HF-3c
|  2> !TightSCF
|  3> %scf
|  4>  ConvForced true
|  5>  convergence tight
|  6>  MaxIter 500
|  7> end
|  8>
|  9> %tddft
| 10>  nroots 1
| 11> end
| 12>
| 13> # 	23708
| 14> * xyz 0 1
| 15> 		C   -0.639318  -0.448974   0.025613
| 16> 		O   -0.562627  -1.622667  -0.036132
| 17> 		C    0.645242   0.397414  -0.025771
| 18> 		C    1.871246  -0.134463   0.024923
| 19> 		H   -1.520560   0.199475   0.321590
| 20> 		H    0.335226   1.664416  -0.166093
| 21> 		H    1.976421  -1.164134   0.303281
| 22> 		H    2.720705   0.556449  -0.208451
| 23> *
| 24>
| 25>                          ****END OF INPUT****

CARTESIAN COORDINATES (ANGSTROEM)
---------------------------------
  C     -0.639318   -0.448974    0.025613
  O     -0.562627   -1.622667   -0.036132
  C      0.645242    0.397414   -0.025771
  C      1.871246   -0.134463    0.024923
  H     -1.520560    0.199475    0.321590
  H      0.335226    1.664416   -0.166093
  H      1.976421   -1.164134    0.303281
  H      2.720705    0.556449   -0.208451

 Total Charge           Charge          ....    0
 Multiplicity           Mult            ....    1
 Number of Electrons    NEL             ....   30
 Basis Dimension        Dim             ....   24

ORBITAL ENERGIES
----------------

  NO   OCC          E(Eh)            E(eV)
   0   2.0000     -20.380976      -554.5946
   1   2.0000     -11.301406      -307.5269
   2   2.0000     -11.173662      -304.0508
   3   2.0000     -11.169604      -303.9404
   4   2.0000      -1.428684       -38.8765
   5   2.0000      -1.050315       -28.5805
   6   2.0000      -0.873660       -23.7735
   7   2.0000      -0.726378       -19.7658
   8   2.0000      -0.674513       -18.3544
   9   2.0000      -0.617709       -16.8087
  10   2.0000      -0.585902       -15.9432
  11   2.0000      -0.546578       -14.8731
  12   2.0000      -0.505335       -13.7509
  13   2.0000      -0.400170       -10.8892
  14   2.0000      -0.380339       -10.3496
  15   0.0000       0.146375         3.9831
  16   0.0000       0.308296         8.3892
  17   0.0000       0.443399        12.0655
  18   0.0000       0.552607        15.0372
  19   0.0000       0.628562        17.1040

MULLIKEN ATOMIC CHARGES
-----------------------
   0 C :    0.177849
   1 O :   -0.357727
   2 C :   -0.136084
   3 C :   -0.252236
   4 H :    0.136599
   5 H :    0.127820
   6 H :    0.157137
   7 H :    0.146643
Sum of atomic charges:    0.0000000

LOEWDIN ATOMIC CHARGES
----------------------
   0 C :    0.147291
   1 O :   -0.248891
   2 C :   -0.114568
   3 C :   -0.155792
   4 H :    0.074749
   5 H :    0.094036
   6 H :    0.103291
   7 H :    0.099884

  Mayer bond orders larger than 0.100000
B(  0-C ,  1-O ) :   1.9307 B(  0-C ,  2-C ) :   0.9869 B(  0-C ,  4-H ) :   0.9148
B(  2-C ,  3-C ) :   1.9718 B(  2-C ,  5-H ) :   0.9538 B(  3-C ,  6-H ) :   0.9573
B(  3-C ,  7-H ) :   0.9616

-----------------------------------------------------------------------------
         ABSORPTION SPECTRUM VIA TRANSITION ELECTRIC DIPOLE MOMENTS
-----------------------------------------------------------------------------
State   Energy    Wavelength  fosc         T2        TX        TY        TZ
        (cm-1)      (nm)                 (au**2)    (au)      (au)      (au)
-----------------------------------------------------------------------------
   1   33892.2    295.1   0.000205053   0.00199  -0.04262   0.01213   0.00533

Dispersion correction           -0.025243894
FINAL SINGLE POINT ENERGY      -189.298189834673

DIPOLE MOMENT
-------------
                                X             Y             Z
Electronic contribution:     -2.03104      -1.97009      -0.15741
Nuclear contribution   :      2.13824       2.96418       0.23622
                        -----------------------------------------
Total Dipole Moment    :      0.10720       0.99409       0.07881
                        -----------------------------------------
Magnitude (a.u.)       :      1.00295
Magnitude (Debye)      :      2.54931

Rotational constants in cm-1:     0.730957     0.206923     0.162240
Rotational constants in MHz : 21913.528448  6203.400719  4863.847181

                             ****ORCA TERMINATED NORMALLY****
TOTAL RUN TIME: 0 days 0 hours 0 minutes 15 seconds 879 msec
