                         Program Version 5.0.3 -  RELEASE  -
|  1> ! HF-3c
|  2> !TightSCF
|  3> %scf
|  4>  ConvForced true
|  5>  convergence tight
|  6>  MaxIter 500
|  7> end
|  8>
|  9> %tddft
| 10>  nroots 1
| 11> end
| 12>
| 13> # 	17664
| 14> * xyz 0 1
| 15> 		C   -1.190804  -0.330105  -0.037652
| 16> 		O   -1.418764  -1.367884  -0.567824
| 17> 		C    0.051335   0.470638  -0.289402
| 18> 		C    1.209217   0.051165   0.062655
| 19> 		H   -1.937340   0.096902   0.830181
| 20> 		H   -0.264594   1.433836  -0.483910
| 21> 		H    1.428716  -0.974905   0.488628
| 22> 		H    2.085837   0.639633  -0.073288
| 23> *
| 24>
| 25>                          ****END OF INPUT****

CARTESIAN COORDINATES (ANGSTROEM)
---------------------------------
  C     -1.190804   -0.330105   -0.037652
  O     -1.418764   -1.367884   -0.567824
  C      0.051335    0.470638   -0.289402
  C      1.209217    0.051165    0.062655
  H     -1.937340    0.096902    0.830181
  H     -0.264594    1.433836   -0.483910
  H      1.428716   -0.974905    0.488628
  H      2.085837    0.639633   -0.073288

 Total Charge           Charge          ....    0
 Multiplicity           Mult            ....    1
 Number of Electrons    NEL             ....   30
 Basis Dimension        Dim             ....   24

ORBITAL ENERGIES
----------------

  NO   OCC          E(Eh)            E(eV)
   0   2.0000     -20.372950      -554.3762
   1   2.0000     -11.296742      -307.4000
   2   2.0000     -11.196614      -304.6753
   3   2.0000     -11.193025      -304.5777
   4   2.0000      -1.417845       -38.5815
   5   2.0000      -1.095663       -29.8145
   6   2.0000      -0.884453       -24.0672
   7   2.0000      -0.744297       -20.2534
   8   2.0000      -0.694925       -18.9099
   9   2.0000      -0.643727       -17.5167
  10   2.0000      -0.610236       -16.6054
  11   2.0000      -0.539985       -14.6937
  12   2.0000      -0.519978       -14.1493
  13   2.0000      -0.421652       -11.4737
  14   2.0000      -0.394120       -10.7246
  15   0.0000       0.180390         4.9086
  16   0.0000       0.256629         6.9832
  17   0.0000       0.489670        13.3246
  18   0.0000       0.583382        15.8746
  19   0.0000       0.674493        18.3539

MULLIKEN ATOMIC CHARGES
-----------------------
   0 C :    0.194414
   1 O :   -0.357577
   2 C :   -0.183531
   3 C :   -0.232362
   4 H :    0.132020
   5 H :    0.149582
   6 H :    0.153180
   7 H :    0.144274
Sum of atomic charges:    0.0000000

LOEWDIN ATOMIC CHARGES
----------------------
   0 C :    0.155559
   1 O :   -0.253344
   2 C :   -0.130928
   3 C :   -0.138286
   4 H :    0.078229
   5 H :    0.093229
   6 H :    0.104029
   7 H :    0.091513

  Mayer bond orders larger than 0.100000
B(  0-C ,  1-O ) :   1.9478 B(  0-C ,  2-C ) :   0.9818 B(  0-C ,  4-H ) :   0.9021
B(  2-C ,  3-C ) :   1.9959 B(  2-C ,  5-H ) :   0.9515 B(  3-C ,  6-H ) :   0.9578
B(  3-C ,  7-H ) :   0.9606

-----------------------------------------------------------------------------
         ABSORPTION SPECTRUM VIA TRANSITION ELECTRIC DIPOLE MOMENTS
-----------------------------------------------------------------------------
State   Energy    Wavelength  fosc         T2        TX        TY        TZ
        (cm-1)      (nm)                 (au**2)    (au)      (au)      (au)
-----------------------------------------------------------------------------
   1   36075.0    277.2   0.000028157   0.00026  -0.00949  -0.00254  -0.01266

Dispersion correction           -0.025407182
FINAL SINGLE POINT ENERGY      -189.304873428387

DIPOLE MOMENT
-------------
                                X             Y             Z
Electronic contribution:     -2.23999      -1.53875      -0.94121
Nuclear contribution   :      2.59063       2.33628       1.47843
                        -----------------------------------------
Total Dipole Moment    :      0.35064       0.79753       0.53722
                        -----------------------------------------
Magnitude (a.u.)       :      1.02353
Magnitude (Debye)      :      2.60160

Rotational constants in cm-1:     0.887079     0.186170     0.164493
Rotational constants in MHz : 26593.972386  5581.223977  4931.374779

                             ****ORCA TERMINATED NORMALLY****
TOTAL RUN TIME: 0 days 0 hours 0 minutes 13 seconds 500 msec
