                         Program Version 5.0.3 -  RELEASE  -
|  1> ! HF-3c
|  2> !TightSCF
|  3> %scf
|  4>  ConvForced true
|  5>  convergence tight
|  6>  MaxIter 500
|  7> end
|  8>
|  9> %tddft
| 10>  nroots 1
| 11> end
| 12>
| 13> # 	7458
| 14> * xyz 0 1
| 15> 		C   -1.197740  -0.324777   0.173582
| 16> 		O   -2.131522  -0.178237   0.858397
| 17> 		C    0.166140   0.407218   0.418205
| 18> 		C    1.205297   0.041915  -0.236268
| 19> 		H   -1.253957  -0.976397  -0.899557
| 20> 		H    0.068516   1.097129   1.110741
| 21> 		H    1.110123  -0.707431  -1.145252
| 22> 		H    2.098909   0.642739  -0.262565
| 23> *
| 24>
| 25>                          ****END OF INPUT****

CARTESIAN COORDINATES (ANGSTROEM)
---------------------------------
  C     -1.197740   -0.324777    0.173582
  O     -2.131522   -0.178237    0.858397
  C      0.166140    0.407218    0.418205
  C      1.205297    0.041915   -0.236268
  H     -1.253957   -0.976397   -0.899557
  H      0.068516    1.097129    1.110741
  H      1.110123   -0.707431   -1.145252
  H      2.098909    0.642739   -0.262565

 Total Charge           Charge          ....    0
 Multiplicity           Mult            ....    1
 Number of Electrons    NEL             ....   30
 Basis Dimension        Dim             ....   24

ORBITAL ENERGIES
----------------

  NO   OCC          E(Eh)            E(eV)
   0   2.0000     -20.383732      -554.6695
   1   2.0000     -11.303207      -307.5759
   2   2.0000     -11.194497      -304.6177
   3   2.0000     -11.193583      -304.5929
   4   2.0000      -1.435856       -39.0716
   5   2.0000      -1.093072       -29.7440
   6   2.0000      -0.855151       -23.2699
   7   2.0000      -0.771871       -21.0037
   8   2.0000      -0.661175       -17.9915
   9   2.0000      -0.657809       -17.8999
  10   2.0000      -0.595408       -16.2019
  11   2.0000      -0.553760       -15.0686
  12   2.0000      -0.536771       -14.6063
  13   2.0000      -0.419824       -11.4240
  14   2.0000      -0.390924       -10.6376
  15   0.0000       0.156912         4.2698
  16   0.0000       0.301396         8.2014
  17   0.0000       0.457628        12.4527
  18   0.0000       0.523045        14.2328
  19   0.0000       0.628494        17.1022

MULLIKEN ATOMIC CHARGES
-----------------------
   0 C :    0.215247
   1 O :   -0.367276
   2 C :   -0.189547
   3 C :   -0.226957
   4 H :    0.123363
   5 H :    0.153747
   6 H :    0.144942
   7 H :    0.146482
Sum of atomic charges:    0.0000000

LOEWDIN ATOMIC CHARGES
----------------------
   0 C :    0.163130
   1 O :   -0.252276
   2 C :   -0.133517
   3 C :   -0.135900
   4 H :    0.072076
   5 H :    0.090298
   6 H :    0.101732
   7 H :    0.094457

  Mayer bond orders larger than 0.100000
B(  0-C ,  1-O ) :   1.9487 B(  0-C ,  2-C ) :   0.9613 B(  0-C ,  4-H ) :   0.8959
B(  2-C ,  3-C ) :   1.9898 B(  2-C ,  5-H ) :   0.9574 B(  3-C ,  6-H ) :   0.9547
B(  3-C ,  7-H ) :   0.9600

-----------------------------------------------------------------------------
         ABSORPTION SPECTRUM VIA TRANSITION ELECTRIC DIPOLE MOMENTS
-----------------------------------------------------------------------------
State   Energy    Wavelength  fosc         T2        TX        TY        TZ
        (cm-1)      (nm)                 (au**2)    (au)      (au)      (au)
-----------------------------------------------------------------------------
   1   36470.7    274.2   0.000104610   0.00094   0.02958   0.00493   0.00669

Dispersion correction           -0.025410611
FINAL SINGLE POINT ENERGY      -189.290662764743

DIPOLE MOMENT
-------------
                                X             Y             Z
Electronic contribution:     -2.99557      -0.21973       1.53125
Nuclear contribution   :      3.88136       0.13740      -2.23874
                        -----------------------------------------
Total Dipole Moment    :      0.88579      -0.08233      -0.70750
                        -----------------------------------------
Magnitude (a.u.)       :      1.13664
Magnitude (Debye)      :      2.88911

Rotational constants in cm-1:     1.478217     0.156108     0.141796
Rotational constants in MHz : 44315.819967  4679.997097  4250.941253

                             ****ORCA TERMINATED NORMALLY****
TOTAL RUN TIME: 0 days 0 hours 0 minutes 11 seconds 626 msec
