                         Program Version 5.0.3 -  RELEASE  -
|  1> ! HF-3c
|  2> !TightSCF
|  3> %scf
|  4>  ConvForced true
|  5>  convergence tight
|  6>  MaxIter 500
|  7> end
|  8>
|  9> %tddft
| 10>  nroots 1
| 11> end
| 12>
| 13> # 	25602
| 14> * xyz 0 1
| 15> 		C   -0.648109  -0.397593   0.023420
| 16> 		O   -0.542245  -1.648180  -0.022738
| 17> 		C    0.630468   0.416029  -0.015580
| 18> 		C    1.872310  -0.136741   0.043093
| 19> 		H   -1.647655   0.032707   0.078038
| 20> 		H    0.555315   1.527498  -0.090424
| 21> 		H    1.886864  -1.306820   0.052451
| 22> 		H    2.680824   0.562915  -0.308910
| 23> *
| 24>
| 25>                          ****END OF INPUT****

CARTESIAN COORDINATES (ANGSTROEM)
---------------------------------
  C     -0.648109   -0.397593    0.023420
  O     -0.542245   -1.648180   -0.022738
  C      0.630468    0.416029   -0.015580
  C      1.872310   -0.136741    0.043093
  H     -1.647655    0.032707    0.078038
  H      0.555315    1.527498   -0.090424
  H      1.886864   -1.306820    0.052451
  H      2.680824    0.562915   -0.308910

 Total Charge           Charge          ....    0
 Multiplicity           Mult            ....    1
 Number of Electrons    NEL             ....   30
 Basis Dimension        Dim             ....   24

ORBITAL ENERGIES
----------------

  NO   OCC          E(Eh)            E(eV)
   0   2.0000     -20.346641      -553.6603
   1   2.0000     -11.282745      -307.0191
   2   2.0000     -11.177612      -304.1583
   3   2.0000     -11.176024      -304.1151
   4   2.0000      -1.367895       -37.2223
   5   2.0000      -1.053199       -28.6590
   6   2.0000      -0.873632       -23.7727
   7   2.0000      -0.734763       -19.9939
   8   2.0000      -0.687474       -18.7071
   9   2.0000      -0.587136       -15.9768
  10   2.0000      -0.575464       -15.6592
  11   2.0000      -0.514411       -13.9978
  12   2.0000      -0.510431       -13.8895
  13   2.0000      -0.415507       -11.3065
  14   2.0000      -0.375090       -10.2067
  15   0.0000       0.126796         3.4503
  16   0.0000       0.292580         7.9615
  17   0.0000       0.527736        14.3604
  18   0.0000       0.558017        15.1844
  19   0.0000       0.604071        16.4376

MULLIKEN ATOMIC CHARGES
-----------------------
   0 C :    0.139040
   1 O :   -0.349524
   2 C :   -0.168554
   3 C :   -0.217938
   4 H :    0.146299
   5 H :    0.132691
   6 H :    0.168426
   7 H :    0.149561
Sum of atomic charges:   -0.0000000

LOEWDIN ATOMIC CHARGES
----------------------
   0 C :    0.135501
   1 O :   -0.268305
   2 C :   -0.128066
   3 C :   -0.129490
   4 H :    0.082650
   5 H :    0.084853
   6 H :    0.120055
   7 H :    0.102802

  Mayer bond orders larger than 0.100000
B(  0-C ,  1-O ) :   1.8980 B(  0-C ,  2-C ) :   1.0277 B(  0-C ,  4-H ) :   0.9343
B(  2-C ,  3-C ) :   1.9409 B(  2-C ,  5-H ) :   0.9613 B(  3-C ,  6-H ) :   0.9506
B(  3-C ,  7-H ) :   0.9606

-----------------------------------------------------------------------------
         ABSORPTION SPECTRUM VIA TRANSITION ELECTRIC DIPOLE MOMENTS
-----------------------------------------------------------------------------
State   Energy    Wavelength  fosc         T2        TX        TY        TZ
        (cm-1)      (nm)                 (au**2)    (au)      (au)      (au)
-----------------------------------------------------------------------------
   1   30093.3    332.3   0.000018026   0.00020  -0.00507   0.00188   0.01296

Dispersion correction           -0.025367660
FINAL SINGLE POINT ENERGY      -189.336967187196

DIPOLE MOMENT
-------------
                                X             Y             Z
Electronic contribution:     -1.88524      -1.64185       0.19837
Nuclear contribution   :      2.10307       2.55366      -0.25101
                        -----------------------------------------
Total Dipole Moment    :      0.21783       0.91181      -0.05264
                        -----------------------------------------
Magnitude (a.u.)       :      0.93895
Magnitude (Debye)      :      2.38662

Rotational constants in cm-1:     0.712998     0.208017     0.161508
Rotational constants in MHz : 21375.127871  6236.179230  4841.885505

                             ****ORCA TERMINATED NORMALLY****
TOTAL RUN TIME: 0 days 0 hours 0 minutes 11 seconds 259 msec
