                         Program Version 5.0.3 -  RELEASE  -
|  1> ! B3LYP cc-pVDZ
|  2> !TightSCF
|  3> %scf
|  4>  ConvForced true
|  5>  convergence tight
|  6>  MaxIter 500
|  7> end
|  8>
|  9> %tddft
| 10>  nroots 1
| 11> end
| 12>
| 13> # 	16258
| 14> * xyz 0 1
| 15> 		C   -1.146402  -0.376401   0.042456
| 16> 		O   -2.088349  -0.471151   0.728104
| 17> 		C   -0.022931   0.474262   0.347494
| 18> 		C    1.158097   0.167361  -0.198988
| 19> 		H   -1.110204  -0.891962  -0.990780
| 20> 		H   -0.153236   1.143344   1.088234
| 21> 		H    1.345572  -0.743860  -1.061011
| 22> 		H    2.006895   0.694263   0.078477
| 23> *
| 24>
| 25>                          ****END OF INPUT****

CARTESIAN COORDINATES (ANGSTROEM)
---------------------------------
  C     -1.146402   -0.376401    0.042456
  O     -2.088349   -0.471151    0.728104
  C     -0.022931    0.474262    0.347494
  C      1.158097    0.167361   -0.198988
  H     -1.110204   -0.891962   -0.990780
  H     -0.153236    1.143344    1.088234
  H      1.345572   -0.743860   -1.061011
  H      2.006895    0.694263    0.078477

 Total Charge           Charge          ....    0
 Multiplicity           Mult            ....    1
 Number of Electrons    NEL             ....   30
 Basis Dimension        Dim             ....   76

ORBITAL ENERGIES
----------------

  NO   OCC          E(Eh)            E(eV)
   0   2.0000     -19.134337      -520.6718
   1   2.0000     -10.268283      -279.4142
   2   2.0000     -10.227142      -278.2947
   3   2.0000     -10.197748      -277.4948
   4   2.0000      -1.068712       -29.0811
   5   2.0000      -0.807921       -21.9847
   6   2.0000      -0.645081       -17.5535
   7   2.0000      -0.570988       -15.5374
   8   2.0000      -0.479991       -13.0612
   9   2.0000      -0.471107       -12.8195
  10   2.0000      -0.429622       -11.6906
  11   2.0000      -0.403992       -10.9932
  12   2.0000      -0.387404       -10.5418
  13   2.0000      -0.294971        -8.0266
  14   2.0000      -0.251900        -6.8545
  15   0.0000      -0.056856        -1.5471
  16   0.0000       0.048117         1.3093
  17   0.0000       0.052753         1.4355
  18   0.0000       0.092061         2.5051
  19   0.0000       0.111962         3.0466

MULLIKEN ATOMIC CHARGES
-----------------------
   0 C :    0.144185
   1 O :   -0.161366
   2 C :    0.009570
   3 C :    0.001456
   4 H :   -0.038813
   5 H :   -0.036651
   6 H :    0.062237
   7 H :    0.019382
Sum of atomic charges:    0.0000000

LOEWDIN ATOMIC CHARGES
----------------------
   0 C :   -0.073350
   1 O :    0.037446
   2 C :   -0.046571
   3 C :    0.008783
   4 H :   -0.011388
   5 H :    0.012265
   6 H :    0.058740
   7 H :    0.014074

  Mayer bond orders larger than 0.100000
B(  0-C ,  1-O ) :   2.2136 B(  0-C ,  2-C ) :   1.0828 B(  0-C ,  4-H ) :   0.9050
B(  2-C ,  3-C ) :   1.9229 B(  2-C ,  5-H ) :   0.9464 B(  3-C ,  6-H ) :   0.9382
B(  3-C ,  7-H ) :   0.9376

-----------------------------------------------------------------------------
         ABSORPTION SPECTRUM VIA TRANSITION ELECTRIC DIPOLE MOMENTS
-----------------------------------------------------------------------------
State   Energy    Wavelength  fosc         T2        TX        TY        TZ
        (cm-1)      (nm)                 (au**2)    (au)      (au)      (au)
-----------------------------------------------------------------------------
   1   30453.3    328.4   0.000466378   0.00504  -0.06906  -0.00849  -0.01415

FINAL SINGLE POINT ENERGY      -191.643401751461

DIPOLE MOMENT
-------------
                                X             Y             Z
Electronic contribution:     -3.06262      -0.22429       1.33770
Nuclear contribution   :      4.04180       0.46115      -1.69658
                        -----------------------------------------
Total Dipole Moment    :      0.97918       0.23686      -0.35888
                        -----------------------------------------
Magnitude (a.u.)       :      1.06944
Magnitude (Debye)      :      2.71830

Rotational constants in cm-1:     1.440306     0.164829     0.150331
Rotational constants in MHz : 43179.276892  4941.435607  4506.804178

                             ****ORCA TERMINATED NORMALLY****
TOTAL RUN TIME: 0 days 0 hours 3 minutes 21 seconds 780 msec
