                         Program Version 5.0.3 -  RELEASE  -
|  1> ! B3LYP cc-pVDZ
|  2> !TightSCF
|  3> %scf
|  4>  ConvForced true
|  5>  convergence tight
|  6>  MaxIter 500
|  7> end
|  8>
|  9> %tddft
| 10>  nroots 1
| 11> end
| 12>
| 13> # 	826
| 14> * xyz 0 1
| 15> 		C   -1.210642  -0.330685  -0.074798
| 16> 		O   -1.535634  -1.219332   0.670877
| 17> 		C    0.004850   0.503780   0.113553
| 18> 		C    1.169810   0.046228  -0.163866
| 19> 		H   -1.824227  -0.172114  -0.880340
| 20> 		H   -0.059154   1.564123   0.562051
| 21> 		H    1.331294  -1.049119  -0.368909
| 22> 		H    2.080328   0.682243   0.088901
| 23> *
| 24>
| 25>                          ****END OF INPUT****

CARTESIAN COORDINATES (ANGSTROEM)
---------------------------------
  C     -1.210642   -0.330685   -0.074798
  O     -1.535634   -1.219332    0.670877
  C      0.004850    0.503780    0.113553
  C      1.169810    0.046228   -0.163866
  H     -1.824227   -0.172114   -0.880340
  H     -0.059154    1.564123    0.562051
  H      1.331294   -1.049119   -0.368909
  H      2.080328    0.682243    0.088901

 Total Charge           Charge          ....    0
 Multiplicity           Mult            ....    1
 Number of Electrons    NEL             ....   30
 Basis Dimension        Dim             ....   76

ORBITAL ENERGIES
----------------

  NO   OCC          E(Eh)            E(eV)
   0   2.0000     -19.141207      -520.8587
   1   2.0000     -10.272342      -279.5246
   2   2.0000     -10.203665      -277.6558
   3   2.0000     -10.202126      -277.6140
   4   2.0000      -1.053830       -28.6762
   5   2.0000      -0.803179       -21.8556
   6   2.0000      -0.650478       -17.7004
   7   2.0000      -0.554954       -15.1011
   8   2.0000      -0.505500       -13.7554
   9   2.0000      -0.453345       -12.3361
  10   2.0000      -0.440159       -11.9773
  11   2.0000      -0.381268       -10.3748
  12   2.0000      -0.370913       -10.0931
  13   2.0000      -0.295919        -8.0524
  14   2.0000      -0.253893        -6.9088
  15   0.0000      -0.034762        -0.9459
  16   0.0000       0.001125         0.0306
  17   0.0000       0.071901         1.9565
  18   0.0000       0.092131         2.5070
  19   0.0000       0.110165         2.9977

MULLIKEN ATOMIC CHARGES
-----------------------
   0 C :    0.211100
   1 O :   -0.183944
   2 C :   -0.101771
   3 C :    0.004849
   4 H :   -0.028153
   5 H :    0.029821
   6 H :    0.032822
   7 H :    0.035275
Sum of atomic charges:    0.0000000

LOEWDIN ATOMIC CHARGES
----------------------
   0 C :   -0.010507
   1 O :    0.014994
   2 C :   -0.073582
   3 C :   -0.041920
   4 H :   -0.017232
   5 H :    0.050781
   6 H :    0.036337
   7 H :    0.041130

  Mayer bond orders larger than 0.100000
B(  0-C ,  1-O ) :   2.2340 B(  0-C ,  2-C ) :   0.9702 B(  0-C ,  4-H ) :   0.9384
B(  2-C ,  3-C ) :   2.0627 B(  2-C ,  5-H ) :   0.9226 B(  3-C ,  6-H ) :   0.9398
B(  3-C ,  7-H ) :   0.9358

-----------------------------------------------------------------------------
         ABSORPTION SPECTRUM VIA TRANSITION ELECTRIC DIPOLE MOMENTS
-----------------------------------------------------------------------------
State   Energy    Wavelength  fosc         T2        TX        TY        TZ
        (cm-1)      (nm)                 (au**2)    (au)      (au)      (au)
-----------------------------------------------------------------------------
   1   32604.8    306.7   0.000019125   0.00019  -0.01028   0.00917  -0.00186

FINAL SINGLE POINT ENERGY      -191.632901582822

DIPOLE MOMENT
-------------
                                X             Y             Z
Electronic contribution:     -2.60504      -1.33721       0.71373
Nuclear contribution   :      2.98758       2.00820      -1.13116
                        -----------------------------------------
Total Dipole Moment    :      0.38254       0.67099      -0.41742
                        -----------------------------------------
Magnitude (a.u.)       :      0.87795
Magnitude (Debye)      :      2.23158

Rotational constants in cm-1:     0.931685     0.180634     0.164672
Rotational constants in MHz : 27931.216908  5415.283031  4936.756003

                             ****ORCA TERMINATED NORMALLY****
TOTAL RUN TIME: 0 days 0 hours 3 minutes 22 seconds 101 msec
