                         Program Version 5.0.3 -  RELEASE  -
|  1> ! HF-3c
|  2> !TightSCF
|  3> %scf
|  4>  ConvForced true
|  5>  convergence tight
|  6>  MaxIter 500
|  7> end
|  8>
|  9> %tddft
| 10>  nroots 1
| 11> end
| 12>
| 13> # 	9075
| 14> * xyz 0 1
| 15> 		C   -1.186817  -0.320321   0.109736
| 16> 		O   -2.112201  -0.413641   0.889282
| 17> 		C    0.020583   0.425157   0.323598
| 18> 		C    1.167523   0.064855  -0.251964
| 19> 		H   -1.286999  -0.787567  -0.910948
| 20> 		H   -0.000245   1.198589   1.134412
| 21> 		H    1.174306  -0.725114  -1.162576
| 22> 		H    2.191587   0.565848  -0.141943
| 23> *
| 24>
| 25>                          ****END OF INPUT****

CARTESIAN COORDINATES (ANGSTROEM)
---------------------------------
  C     -1.186817   -0.320321    0.109736
  O     -2.112201   -0.413641    0.889282
  C      0.020583    0.425157    0.323598
  C      1.167523    0.064855   -0.251964
  H     -1.286999   -0.787567   -0.910948
  H     -0.000245    1.198589    1.134412
  H      1.174306   -0.725114   -1.162576
  H      2.191587    0.565848   -0.141943

 Total Charge           Charge          ....    0
 Multiplicity           Mult            ....    1
 Number of Electrons    NEL             ....   30
 Basis Dimension        Dim             ....   24

ORBITAL ENERGIES
----------------

  NO   OCC          E(Eh)            E(eV)
   0   2.0000     -20.359243      -554.0032
   1   2.0000     -11.293524      -307.3124
   2   2.0000     -11.193629      -304.5941
   3   2.0000     -11.189993      -304.4952
   4   2.0000      -1.395800       -37.9816
   5   2.0000      -1.083819       -29.4922
   6   2.0000      -0.872643       -23.7458
   7   2.0000      -0.764602       -20.8059
   8   2.0000      -0.655062       -17.8251
   9   2.0000      -0.640995       -17.4424
  10   2.0000      -0.578975       -15.7547
  11   2.0000      -0.532372       -14.4866
  12   2.0000      -0.512824       -13.9547
  13   2.0000      -0.409481       -11.1425
  14   2.0000      -0.392638       -10.6842
  15   0.0000       0.134566         3.6617
  16   0.0000       0.301480         8.2037
  17   0.0000       0.503109        13.6903
  18   0.0000       0.573005        15.5923
  19   0.0000       0.598930        16.2977

MULLIKEN ATOMIC CHARGES
-----------------------
   0 C :    0.164538
   1 O :   -0.352911
   2 C :   -0.188605
   3 C :   -0.195528
   4 H :    0.131022
   5 H :    0.157844
   6 H :    0.137129
   7 H :    0.146510
Sum of atomic charges:   -0.0000000

LOEWDIN ATOMIC CHARGES
----------------------
   0 C :    0.145956
   1 O :   -0.260439
   2 C :   -0.145485
   3 C :   -0.110734
   4 H :    0.070039
   5 H :    0.105699
   6 H :    0.095802
   7 H :    0.099162

  Mayer bond orders larger than 0.100000
B(  0-C ,  1-O ) :   1.8985 B(  0-C ,  2-C ) :   1.0421 B(  0-C ,  4-H ) :   0.9214
B(  2-C ,  3-C ) :   1.9397 B(  2-C ,  5-H ) :   0.9479 B(  3-C ,  6-H ) :   0.9594
B(  3-C ,  7-H ) :   0.9618

-----------------------------------------------------------------------------
         ABSORPTION SPECTRUM VIA TRANSITION ELECTRIC DIPOLE MOMENTS
-----------------------------------------------------------------------------
State   Energy    Wavelength  fosc         T2        TX        TY        TZ
        (cm-1)      (nm)                 (au**2)    (au)      (au)      (au)
-----------------------------------------------------------------------------
   1   32825.9    304.6   0.000044519   0.00045  -0.01964  -0.00173  -0.00760

Dispersion correction           -0.025310086
FINAL SINGLE POINT ENERGY      -189.326289972958

DIPOLE MOMENT
-------------
                                X             Y             Z
Electronic contribution:     -2.97581      -0.39990       1.34570
Nuclear contribution   :      4.04795       0.52078      -2.03033
                        -----------------------------------------
Total Dipole Moment    :      1.07214       0.12087      -0.68462
                        -----------------------------------------
Magnitude (a.u.)       :      1.27781
Magnitude (Debye)      :      3.24793

Rotational constants in cm-1:     1.473534     0.157044     0.144797
Rotational constants in MHz : 44175.440432  4708.060778  4340.900012

                             ****ORCA TERMINATED NORMALLY****
TOTAL RUN TIME: 0 days 0 hours 0 minutes 12 seconds 977 msec
