                         Program Version 5.0.3 -  RELEASE  -
|  1> ! HF-3c
|  2> !TightSCF
|  3> %scf
|  4>  ConvForced true
|  5>  convergence tight
|  6>  MaxIter 500
|  7> end
|  8>
|  9> %tddft
| 10>  nroots 1
| 11> end
| 12>
| 13> # 	1349
| 14> * xyz 0 1
| 15> 		C   -1.237616  -0.375927  -0.038138
| 16> 		O   -1.826025  -1.124938   0.878071
| 17> 		C   -0.003130   0.401374   0.278631
| 18> 		C    1.178161   0.040328  -0.153124
| 19> 		H   -1.623811  -0.443002  -1.014393
| 20> 		H   -0.079042   1.414269   0.786805
| 21> 		H    1.377472  -0.702400  -0.706343
| 22> 		H    2.139859   0.705333  -0.049967
| 23> *
| 24>
| 25>                          ****END OF INPUT****

CARTESIAN COORDINATES (ANGSTROEM)
---------------------------------
  C     -1.237616   -0.375927   -0.038138
  O     -1.826025   -1.124938    0.878071
  C     -0.003130    0.401374    0.278631
  C      1.178161    0.040328   -0.153124
  H     -1.623811   -0.443002   -1.014393
  H     -0.079042    1.414269    0.786805
  H      1.377472   -0.702400   -0.706343
  H      2.139859    0.705333   -0.049967

 Total Charge           Charge          ....    0
 Multiplicity           Mult            ....    1
 Number of Electrons    NEL             ....   30
 Basis Dimension        Dim             ....   24

ORBITAL ENERGIES
----------------

  NO   OCC          E(Eh)            E(eV)
   0   2.0000     -20.353799      -553.8550
   1   2.0000     -11.282440      -307.0108
   2   2.0000     -11.205526      -304.9179
   3   2.0000     -11.187672      -304.4320
   4   2.0000      -1.334264       -36.3072
   5   2.0000      -1.090536       -29.6750
   6   2.0000      -0.894815       -24.3492
   7   2.0000      -0.787430       -21.4271
   8   2.0000      -0.681215       -18.5368
   9   2.0000      -0.632436       -17.2095
  10   2.0000      -0.585875       -15.9425
  11   2.0000      -0.531856       -14.4725
  12   2.0000      -0.458736       -12.4828
  13   2.0000      -0.425800       -11.5866
  14   2.0000      -0.411090       -11.1863
  15   0.0000       0.146045         3.9741
  16   0.0000       0.218145         5.9360
  17   0.0000       0.520595        14.1661
  18   0.0000       0.572100        15.5676
  19   0.0000       0.693231        18.8638

MULLIKEN ATOMIC CHARGES
-----------------------
   0 C :    0.125494
   1 O :   -0.312716
   2 C :   -0.153712
   3 C :   -0.255424
   4 H :    0.152112
   5 H :    0.161722
   6 H :    0.134133
   7 H :    0.148391
Sum of atomic charges:    0.0000000

LOEWDIN ATOMIC CHARGES
----------------------
   0 C :    0.137142
   1 O :   -0.247838
   2 C :   -0.103446
   3 C :   -0.160730
   4 H :    0.085448
   5 H :    0.110955
   6 H :    0.074449
   7 H :    0.104019

  Mayer bond orders larger than 0.100000
B(  0-C ,  1-O ) :   1.9345 B(  0-C ,  2-C ) :   1.0069 B(  0-C ,  4-H ) :   0.9373
B(  2-C ,  3-C ) :   1.9969 B(  2-C ,  5-H ) :   0.9418 B(  3-C ,  6-H ) :   0.9700
B(  3-C ,  7-H ) :   0.9583

-----------------------------------------------------------------------------
         ABSORPTION SPECTRUM VIA TRANSITION ELECTRIC DIPOLE MOMENTS
-----------------------------------------------------------------------------
State   Energy    Wavelength  fosc         T2        TX        TY        TZ
        (cm-1)      (nm)                 (au**2)    (au)      (au)      (au)
-----------------------------------------------------------------------------
   1   27511.9    363.5   0.000006292   0.00008   0.00018   0.00209  -0.00842

Dispersion correction           -0.024837926
FINAL SINGLE POINT ENERGY      -189.312668280654

DIPOLE MOMENT
-------------
                                X             Y             Z
Electronic contribution:     -2.96801      -1.30415       1.17485
Nuclear contribution   :      3.56612       1.98771      -1.85800
                        -----------------------------------------
Total Dipole Moment    :      0.59811       0.68356      -0.68315
                        -----------------------------------------
Magnitude (a.u.)       :      1.13652
Magnitude (Debye)      :      2.88881

Rotational constants in cm-1:     1.064544     0.154138     0.151911
Rotational constants in MHz : 31914.218476  4620.952484  4554.183852

                             ****ORCA TERMINATED NORMALLY****
TOTAL RUN TIME: 0 days 0 hours 0 minutes 16 seconds 99 msec
