                         Program Version 5.0.3 -  RELEASE  -
|  1> ! HF-3c
|  2> !TightSCF
|  3> %scf
|  4>  ConvForced true
|  5>  convergence tight
|  6>  MaxIter 500
|  7> end
|  8>
|  9> %tddft
| 10>  nroots 1
| 11> end
| 12>
| 13> # 	28458
| 14> * xyz 0 1
| 15> 		C   -0.582333  -0.397930  -0.000165
| 16> 		O   -0.549589  -1.599772   0.010642
| 17> 		C    0.582954   0.386130   0.050743
| 18> 		C    1.864920  -0.167001  -0.018980
| 19> 		H   -1.741046  -0.112569  -0.380242
| 20> 		H    0.547672   1.592558   0.022715
| 21> 		H    1.930585  -1.199258  -0.057990
| 22> 		H    2.713003   0.480748  -0.129260
| 23> *
| 24>
| 25>                          ****END OF INPUT****

CARTESIAN COORDINATES (ANGSTROEM)
---------------------------------
  C     -0.582333   -0.397930   -0.000165
  O     -0.549589   -1.599772    0.010642
  C      0.582954    0.386130    0.050743
  C      1.864920   -0.167001   -0.018980
  H     -1.741046   -0.112569   -0.380242
  H      0.547672    1.592558    0.022715
  H      1.930585   -1.199258   -0.057990
  H      2.713003    0.480748   -0.129260

 Total Charge           Charge          ....    0
 Multiplicity           Mult            ....    1
 Number of Electrons    NEL             ....   30
 Basis Dimension        Dim             ....   24

ORBITAL ENERGIES
----------------

  NO   OCC          E(Eh)            E(eV)
   0   2.0000     -20.340568      -553.4950
   1   2.0000     -11.284988      -307.0801
   2   2.0000     -11.192469      -304.5626
   3   2.0000     -11.189585      -304.4841
   4   2.0000      -1.400154       -38.1001
   5   2.0000      -1.065190       -28.9853
   6   2.0000      -0.888139       -24.1675
   7   2.0000      -0.720272       -19.5996
   8   2.0000      -0.696522       -18.9533
   9   2.0000      -0.600884       -16.3509
  10   2.0000      -0.594029       -16.1643
  11   2.0000      -0.542109       -14.7515
  12   2.0000      -0.507639       -13.8136
  13   2.0000      -0.394817       -10.7435
  14   2.0000      -0.373037       -10.1509
  15   0.0000       0.119232         3.2445
  16   0.0000       0.308622         8.3980
  17   0.0000       0.458941        12.4884
  18   0.0000       0.551436        15.0053
  19   0.0000       0.677740        18.4422

MULLIKEN ATOMIC CHARGES
-----------------------
   0 C :    0.144188
   1 O :   -0.364076
   2 C :   -0.159526
   3 C :   -0.218875
   4 H :    0.146121
   5 H :    0.144387
   6 H :    0.158697
   7 H :    0.149082
Sum of atomic charges:   -0.0000000

LOEWDIN ATOMIC CHARGES
----------------------
   0 C :    0.116726
   1 O :   -0.271042
   2 C :   -0.124766
   3 C :   -0.113301
   4 H :    0.094101
   5 H :    0.101300
   6 H :    0.099735
   7 H :    0.097246

  Mayer bond orders larger than 0.100000
B(  0-C ,  1-O ) :   1.8660 B(  0-C ,  2-C ) :   1.0757 B(  0-C ,  4-H ) :   0.9167
B(  2-C ,  3-C ) :   1.9058 B(  2-C ,  5-H ) :   0.9559 B(  3-C ,  6-H ) :   0.9627
B(  3-C ,  7-H ) :   0.9672

-----------------------------------------------------------------------------
         ABSORPTION SPECTRUM VIA TRANSITION ELECTRIC DIPOLE MOMENTS
-----------------------------------------------------------------------------
State   Energy    Wavelength  fosc         T2        TX        TY        TZ
        (cm-1)      (nm)                 (au**2)    (au)      (au)      (au)
-----------------------------------------------------------------------------
   1   29431.3    339.8   0.000113876   0.00127   0.00007  -0.00084  -0.03568

Dispersion correction           -0.025558630
FINAL SINGLE POINT ENERGY      -189.303487816046

DIPOLE MOMENT
-------------
                                X             Y             Z
Electronic contribution:     -1.78106      -1.53833       0.38330
Nuclear contribution   :      2.08020       2.50344      -0.51098
                        -----------------------------------------
Total Dipole Moment    :      0.29914       0.96511      -0.12769
                        -----------------------------------------
Magnitude (a.u.)       :      1.01844
Magnitude (Debye)      :      2.58868

Rotational constants in cm-1:     0.747784     0.215587     0.168020
Rotational constants in MHz : 22418.007434  6463.131426  5037.121745

                             ****ORCA TERMINATED NORMALLY****
TOTAL RUN TIME: 0 days 0 hours 0 minutes 11 seconds 271 msec
