                         Program Version 5.0.3 -  RELEASE  -
|  1> ! HF-3c
|  2> !TightSCF
|  3> %scf
|  4>  ConvForced true
|  5>  convergence tight
|  6>  MaxIter 500
|  7> end
|  8>
|  9> %tddft
| 10>  nroots 1
| 11> end
| 12>
| 13> # 	20239
| 14> * xyz 0 1
| 15> 		C   -0.656600  -0.466664  -0.018296
| 16> 		O   -0.559742  -1.619727  -0.003305
| 17> 		C    0.674221   0.367097   0.020789
| 18> 		C    1.863401  -0.082010   0.002897
| 19> 		H   -1.700455   0.303551   0.121711
| 20> 		H    0.533084   1.528259  -0.113933
| 21> 		H    1.813641  -1.248500   0.064540
| 22> 		H    2.775622   0.548462  -0.096829
| 23> *
| 24>
| 25>                          ****END OF INPUT****

CARTESIAN COORDINATES (ANGSTROEM)
---------------------------------
  C     -0.656600   -0.466664   -0.018296
  O     -0.559742   -1.619727   -0.003305
  C      0.674221    0.367097    0.020789
  C      1.863401   -0.082010    0.002897
  H     -1.700455    0.303551    0.121711
  H      0.533084    1.528259   -0.113933
  H      1.813641   -1.248500    0.064540
  H      2.775622    0.548462   -0.096829

 Total Charge           Charge          ....    0
 Multiplicity           Mult            ....    1
 Number of Electrons    NEL             ....   30
 Basis Dimension        Dim             ....   24

ORBITAL ENERGIES
----------------

  NO   OCC          E(Eh)            E(eV)
   0   2.0000     -20.391654      -554.8851
   1   2.0000     -11.310802      -307.7826
   2   2.0000     -11.170580      -303.9669
   3   2.0000     -11.165702      -303.8342
   4   2.0000      -1.449373       -39.4394
   5   2.0000      -1.068701       -29.0808
   6   2.0000      -0.846177       -23.0256
   7   2.0000      -0.705434       -19.1958
   8   2.0000      -0.686569       -18.6825
   9   2.0000      -0.610240       -16.6055
  10   2.0000      -0.602896       -16.4056
  11   2.0000      -0.563459       -15.3325
  12   2.0000      -0.484439       -13.1823
  13   2.0000      -0.405618       -11.0374
  14   2.0000      -0.388841       -10.5809
  15   0.0000       0.164808         4.4847
  16   0.0000       0.327473         8.9110
  17   0.0000       0.421869        11.4796
  18   0.0000       0.547520        14.8988
  19   0.0000       0.572893        15.5892

MULLIKEN ATOMIC CHARGES
-----------------------
   0 C :    0.213709
   1 O :   -0.370096
   2 C :   -0.167281
   3 C :   -0.247957
   4 H :    0.140764
   5 H :    0.119827
   6 H :    0.159915
   7 H :    0.151120
Sum of atomic charges:    0.0000000

LOEWDIN ATOMIC CHARGES
----------------------
   0 C :    0.158842
   1 O :   -0.250557
   2 C :   -0.136310
   3 C :   -0.157179
   4 H :    0.091323
   5 H :    0.077756
   6 H :    0.113227
   7 H :    0.102897

  Mayer bond orders larger than 0.100000
B(  0-C ,  1-O ) :   1.9525 B(  0-C ,  2-C ) :   0.9568 B(  0-C ,  4-H ) :   0.8855
B(  2-C ,  3-C ) :   1.9968 B(  2-C ,  5-H ) :   0.9561 B(  3-C ,  6-H ) :   0.9446
B(  3-C ,  7-H ) :   0.9582

-----------------------------------------------------------------------------
         ABSORPTION SPECTRUM VIA TRANSITION ELECTRIC DIPOLE MOMENTS
-----------------------------------------------------------------------------
State   Energy    Wavelength  fosc         T2        TX        TY        TZ
        (cm-1)      (nm)                 (au**2)    (au)      (au)      (au)
-----------------------------------------------------------------------------
   1   36887.1    271.1   0.000726536   0.00648   0.07982  -0.00652  -0.00843

Dispersion correction           -0.025447237
FINAL SINGLE POINT ENERGY      -189.273514246804

DIPOLE MOMENT
-------------
                                X             Y             Z
Electronic contribution:     -2.02039      -1.95340      -0.00021
Nuclear contribution   :      2.05382       2.84916      -0.02218
                        -----------------------------------------
Total Dipole Moment    :      0.03343       0.89576      -0.02239
                        -----------------------------------------
Magnitude (a.u.)       :      0.89666
Magnitude (Debye)      :      2.27913

Rotational constants in cm-1:     0.787110     0.203675     0.161964
Rotational constants in MHz : 23596.968103  6106.010728  4855.571955

                             ****ORCA TERMINATED NORMALLY****
TOTAL RUN TIME: 0 days 0 hours 0 minutes 12 seconds 177 msec
