                         Program Version 5.0.3 -  RELEASE  -
|  1> ! B3LYP cc-pVDZ
|  2> !TightSCF
|  3> %scf
|  4>  ConvForced true
|  5>  convergence tight
|  6>  MaxIter 500
|  7> end
|  8>
|  9> %tddft
| 10>  nroots 1
| 11> end
| 12>
| 13> # 	13168
| 14> * xyz 0 1
| 15> 		C   -1.195110  -0.304096   0.003291
| 16> 		O   -1.676743  -1.070233   0.895017
| 17> 		C   -0.017975   0.534725   0.292394
| 18> 		C    1.187491   0.045054  -0.201440
| 19> 		H   -1.736724  -0.336269  -1.034385
| 20> 		H   -0.024675   1.345722   0.814207
| 21> 		H    1.368213  -0.862083  -0.796658
| 22> 		H    2.114343   0.620407   0.031118
| 23> *
| 24>
| 25>                          ****END OF INPUT****

CARTESIAN COORDINATES (ANGSTROEM)
---------------------------------
  C     -1.195110   -0.304096    0.003291
  O     -1.676743   -1.070233    0.895017
  C     -0.017975    0.534725    0.292394
  C      1.187491    0.045054   -0.201440
  H     -1.736724   -0.336269   -1.034385
  H     -0.024675    1.345722    0.814207
  H      1.368213   -0.862083   -0.796658
  H      2.114343    0.620407    0.031118

 Total Charge           Charge          ....    0
 Multiplicity           Mult            ....    1
 Number of Electrons    NEL             ....   30
 Basis Dimension        Dim             ....   76

ORBITAL ENERGIES
----------------

  NO   OCC          E(Eh)            E(eV)
   0   2.0000     -19.142350      -520.8898
   1   2.0000     -10.289835      -280.0006
   2   2.0000     -10.218232      -278.0522
   3   2.0000     -10.209537      -277.8156
   4   2.0000      -1.018087       -27.7036
   5   2.0000      -0.795119       -21.6363
   6   2.0000      -0.645086       -17.5537
   7   2.0000      -0.577416       -15.7123
   8   2.0000      -0.492959       -13.4141
   9   2.0000      -0.455122       -12.3845
  10   2.0000      -0.429727       -11.6935
  11   2.0000      -0.395148       -10.7525
  12   2.0000      -0.357615        -9.7312
  13   2.0000      -0.281540        -7.6611
  14   2.0000      -0.253733        -6.9044
  15   0.0000      -0.051385        -1.3983
  16   0.0000      -0.019909        -0.5418
  17   0.0000       0.082158         2.2356
  18   0.0000       0.088219         2.4006
  19   0.0000       0.100536         2.7357

MULLIKEN ATOMIC CHARGES
-----------------------
   0 C :    0.147966
   1 O :   -0.226513
   2 C :    0.051014
   3 C :   -0.027848
   4 H :    0.021357
   5 H :   -0.041505
   6 H :    0.037252
   7 H :    0.038277
Sum of atomic charges:    0.0000000

LOEWDIN ATOMIC CHARGES
----------------------
   0 C :    0.012303
   1 O :   -0.049235
   2 C :   -0.023724
   3 C :   -0.010671
   4 H :    0.012170
   5 H :   -0.003664
   6 H :    0.029140
   7 H :    0.033683

  Mayer bond orders larger than 0.100000
B(  0-C ,  1-O ) :   2.1505 B(  0-C ,  2-C ) :   0.9872 B(  0-C ,  4-H ) :   0.9195
B(  2-C ,  3-C ) :   1.9976 B(  2-C ,  5-H ) :   0.9490 B(  3-C ,  6-H ) :   0.9582
B(  3-C ,  7-H ) :   0.9515

-----------------------------------------------------------------------------
         ABSORPTION SPECTRUM VIA TRANSITION ELECTRIC DIPOLE MOMENTS
-----------------------------------------------------------------------------
State   Energy    Wavelength  fosc         T2        TX        TY        TZ
        (cm-1)      (nm)                 (au**2)    (au)      (au)      (au)
-----------------------------------------------------------------------------
   1   29489.2    339.1   0.000681941   0.00761   0.08023  -0.00824  -0.03330

FINAL SINGLE POINT ENERGY      -191.636456246005

DIPOLE MOMENT
-------------
                                X             Y             Z
Electronic contribution:     -2.69980      -0.94630       1.29624
Nuclear contribution   :      3.29674       1.58060      -1.88310
                        -----------------------------------------
Total Dipole Moment    :      0.59694       0.63430      -0.58686
                        -----------------------------------------
Magnitude (a.u.)       :      1.05028
Magnitude (Debye)      :      2.66960

Rotational constants in cm-1:     0.924617     0.165074     0.159768
Rotational constants in MHz : 27719.308916  4948.780514  4789.735218

                             ****ORCA TERMINATED NORMALLY****
TOTAL RUN TIME: 0 days 0 hours 3 minutes 20 seconds 25 msec
