                         Program Version 5.0.3 -  RELEASE  -
|  1> ! B3LYP cc-pVDZ
|  2> !TightSCF
|  3> %scf
|  4>  ConvForced true
|  5>  convergence tight
|  6>  MaxIter 500
|  7> end
|  8>
|  9> %tddft
| 10>  nroots 1
| 11> end
| 12>
| 13> # 	2639
| 14> * xyz 0 1
| 15> 		C   -1.136848  -0.308212   0.114477
| 16> 		O   -2.206741  -0.274224   0.721394
| 17> 		C    0.054325   0.358379   0.416949
| 18> 		C    1.073076   0.277440  -0.375329
| 19> 		H   -1.114152  -1.001168  -0.934477
| 20> 		H    0.081087   0.786963   1.323145
| 21> 		H    1.207029  -0.507005  -1.181897
| 22> 		H    2.009827   0.663921  -0.087316
| 23> *
| 24>
| 25>                          ****END OF INPUT****

CARTESIAN COORDINATES (ANGSTROEM)
---------------------------------
  C     -1.136848   -0.308212    0.114477
  O     -2.206741   -0.274224    0.721394
  C      0.054325    0.358379    0.416949
  C      1.073076    0.277440   -0.375329
  H     -1.114152   -1.001168   -0.934477
  H      0.081087    0.786963    1.323145
  H      1.207029   -0.507005   -1.181897
  H      2.009827    0.663921   -0.087316

 Total Charge           Charge          ....    0
 Multiplicity           Mult            ....    1
 Number of Electrons    NEL             ....   30
 Basis Dimension        Dim             ....   76

ORBITAL ENERGIES
----------------

  NO   OCC          E(Eh)            E(eV)
   0   2.0000     -19.138723      -520.7911
   1   2.0000     -10.278256      -279.6856
   2   2.0000     -10.220473      -278.1132
   3   2.0000     -10.200419      -277.5675
   4   2.0000      -1.035011       -28.1641
   5   2.0000      -0.830829       -22.6080
   6   2.0000      -0.662370       -18.0240
   7   2.0000      -0.570376       -15.5207
   8   2.0000      -0.491850       -13.3839
   9   2.0000      -0.467348       -12.7172
  10   2.0000      -0.413353       -11.2479
  11   2.0000      -0.402210       -10.9447
  12   2.0000      -0.389391       -10.5959
  13   2.0000      -0.303532        -8.2595
  14   2.0000      -0.252278        -6.8648
  15   0.0000      -0.074205        -2.0192
  16   0.0000       0.049821         1.3557
  17   0.0000       0.073876         2.0103
  18   0.0000       0.078998         2.1496
  19   0.0000       0.111279         3.0280

MULLIKEN ATOMIC CHARGES
-----------------------
   0 C :    0.109911
   1 O :   -0.204865
   2 C :    0.042684
   3 C :    0.060037
   4 H :   -0.033515
   5 H :   -0.043003
   6 H :    0.045338
   7 H :    0.023412
Sum of atomic charges:   -0.0000000

LOEWDIN ATOMIC CHARGES
----------------------
   0 C :   -0.039854
   1 O :   -0.019180
   2 C :   -0.051995
   3 C :    0.029597
   4 H :   -0.008469
   5 H :    0.017664
   6 H :    0.045990
   7 H :    0.026247

  Mayer bond orders larger than 0.100000
B(  0-C ,  1-O ) :   2.1350 B(  0-C ,  2-C ) :   1.1206 B(  0-C ,  4-H ) :   0.8973
B(  1-O ,  3-C ) :   0.1110 B(  2-C ,  3-C ) :   1.9196 B(  2-C ,  5-H ) :   0.9440
B(  3-C ,  6-H ) :   0.9405 B(  3-C ,  7-H ) :   0.9340

-----------------------------------------------------------------------------
         ABSORPTION SPECTRUM VIA TRANSITION ELECTRIC DIPOLE MOMENTS
-----------------------------------------------------------------------------
State   Energy    Wavelength  fosc         T2        TX        TY        TZ
        (cm-1)      (nm)                 (au**2)    (au)      (au)      (au)
-----------------------------------------------------------------------------
   1   26551.6    376.6   0.000167698   0.00208  -0.01630   0.02552  -0.03409

FINAL SINGLE POINT ENERGY      -191.661253599244

DIPOLE MOMENT
-------------
                                X             Y             Z
Electronic contribution:     -3.01577       0.14028       1.36990
Nuclear contribution   :      4.24838      -0.02352      -1.65738
                        -----------------------------------------
Total Dipole Moment    :      1.23261       0.11676      -0.28748
                        -----------------------------------------
Magnitude (a.u.)       :      1.27107
Magnitude (Debye)      :      3.23079

Rotational constants in cm-1:     1.657196     0.160535     0.146602
Rotational constants in MHz : 49681.473172  4812.706053  4395.028059

                             ****ORCA TERMINATED NORMALLY****
TOTAL RUN TIME: 0 days 0 hours 3 minutes 25 seconds 407 msec
