                         Program Version 5.0.3 -  RELEASE  -
|  1> ! HF-3c
|  2> !TightSCF
|  3> %scf
|  4>  ConvForced true
|  5>  convergence tight
|  6>  MaxIter 500
|  7> end
|  8>
|  9> %tddft
| 10>  nroots 1
| 11> end
| 12>
| 13> # 	17099
| 14> * xyz 0 1
| 15> 		C   -1.180238  -0.417652  -0.024429
| 16> 		O   -2.257110  -0.451759   0.706142
| 17> 		C    0.069736   0.340694   0.333053
| 18> 		C    1.130554   0.303633  -0.273753
| 19> 		H   -0.978516  -0.972625  -0.893224
| 20> 		H    0.037430   0.876851   1.205683
| 21> 		H    1.154137  -0.237755  -1.110716
| 22> 		H    2.071235   0.610855   0.066075
| 23> *
| 24>
| 25>                          ****END OF INPUT****

CARTESIAN COORDINATES (ANGSTROEM)
---------------------------------
  C     -1.180238   -0.417652   -0.024429
  O     -2.257110   -0.451759    0.706142
  C      0.069736    0.340694    0.333053
  C      1.130554    0.303633   -0.273753
  H     -0.978516   -0.972625   -0.893224
  H      0.037430    0.876851    1.205683
  H      1.154137   -0.237755   -1.110716
  H      2.071235    0.610855    0.066075

 Total Charge           Charge          ....    0
 Multiplicity           Mult            ....    1
 Number of Electrons    NEL             ....   30
 Basis Dimension        Dim             ....   24

ORBITAL ENERGIES
----------------

  NO   OCC          E(Eh)            E(eV)
   0   2.0000     -20.369370      -554.2787
   1   2.0000     -11.294139      -307.3291
   2   2.0000     -11.212208      -305.0997
   3   2.0000     -11.208517      -304.9992
   4   2.0000      -1.349920       -36.7332
   5   2.0000      -1.140959       -31.0471
   6   2.0000      -0.908955       -24.7339
   7   2.0000      -0.811287       -22.0762
   8   2.0000      -0.686425       -18.6786
   9   2.0000      -0.675194       -18.3730
  10   2.0000      -0.583135       -15.8679
  11   2.0000      -0.550011       -14.9666
  12   2.0000      -0.526911       -14.3380
  13   2.0000      -0.430950       -11.7268
  14   2.0000      -0.423843       -11.5334
  15   0.0000       0.115488         3.1426
  16   0.0000       0.303122         8.2484
  17   0.0000       0.526574        14.3288
  18   0.0000       0.644883        17.5482
  19   0.0000       0.688021        18.7220

MULLIKEN ATOMIC CHARGES
-----------------------
   0 C :    0.152711
   1 O :   -0.316448
   2 C :   -0.175621
   3 C :   -0.265813
   4 H :    0.142510
   5 H :    0.158842
   6 H :    0.142101
   7 H :    0.161718
Sum of atomic charges:    0.0000000

LOEWDIN ATOMIC CHARGES
----------------------
   0 C :    0.156535
   1 O :   -0.246521
   2 C :   -0.115093
   3 C :   -0.157096
   4 H :    0.076075
   5 H :    0.096417
   6 H :    0.085142
   7 H :    0.104541

  Mayer bond orders larger than 0.100000
B(  0-C ,  1-O ) :   1.9229 B(  0-C ,  2-C ) :   1.0144 B(  0-C ,  4-H ) :   0.9351
B(  2-C ,  3-C ) :   1.9761 B(  2-C ,  5-H ) :   0.9495 B(  3-C ,  6-H ) :   0.9585
B(  3-C ,  7-H ) :   0.9559

-----------------------------------------------------------------------------
         ABSORPTION SPECTRUM VIA TRANSITION ELECTRIC DIPOLE MOMENTS
-----------------------------------------------------------------------------
State   Energy    Wavelength  fosc         T2        TX        TY        TZ
        (cm-1)      (nm)                 (au**2)    (au)      (au)      (au)
-----------------------------------------------------------------------------
   1   28362.7    352.6   0.000004392   0.00005   0.00627   0.00310   0.00145

Dispersion correction           -0.026216666
FINAL SINGLE POINT ENERGY      -189.320459341625

DIPOLE MOMENT
-------------
                                X             Y             Z
Electronic contribution:     -3.37283      -0.51877       0.90814
Nuclear contribution   :      4.36545       0.53746      -1.41422
                        -----------------------------------------
Total Dipole Moment    :      0.99262       0.01869      -0.50608
                        -----------------------------------------
Magnitude (a.u.)       :      1.11435
Magnitude (Debye)      :      2.83244

Rotational constants in cm-1:     1.771128     0.150423     0.138905
Rotational constants in MHz : 53097.088727  4509.570007  4164.267007

                             ****ORCA TERMINATED NORMALLY****
TOTAL RUN TIME: 0 days 0 hours 0 minutes 10 seconds 578 msec
