                         Program Version 5.0.3 -  RELEASE  -
|  1> ! B3LYP cc-pVDZ
|  2> !TightSCF
|  3> %scf
|  4>  ConvForced true
|  5>  convergence tight
|  6>  MaxIter 500
|  7> end
|  8>
|  9> %tddft
| 10>  nroots 1
| 11> end
| 12>
| 13> # 	3845
| 14> * xyz 0 1
| 15> 		C   -1.221549  -0.246311  -0.046115
| 16> 		O   -1.440347  -1.204612  -0.715935
| 17> 		C   -0.025101   0.600458  -0.142202
| 18> 		C    1.166986  -0.003932   0.092402
| 19> 		H   -1.801162  -0.218090   0.818824
| 20> 		H   -0.164555   1.585699  -0.464027
| 21> 		H    1.174550  -1.017581   0.323743
| 22> 		H    2.287543   0.502996   0.096898
| 23> *
| 24>
| 25>                          ****END OF INPUT****

CARTESIAN COORDINATES (ANGSTROEM)
---------------------------------
  C     -1.221549   -0.246311   -0.046115
  O     -1.440347   -1.204612   -0.715935
  C     -0.025101    0.600458   -0.142202
  C      1.166986   -0.003932    0.092402
  H     -1.801162   -0.218090    0.818824
  H     -0.164555    1.585699   -0.464027
  H      1.174550   -1.017581    0.323743
  H      2.287543    0.502996    0.096898

 Total Charge           Charge          ....    0
 Multiplicity           Mult            ....    1
 Number of Electrons    NEL             ....   30
 Basis Dimension        Dim             ....   76

ORBITAL ENERGIES
----------------

  NO   OCC          E(Eh)            E(eV)
   0   2.0000     -19.136984      -520.7438
   1   2.0000     -10.267350      -279.3888
   2   2.0000     -10.217212      -278.0245
   3   2.0000     -10.205159      -277.6965
   4   2.0000      -1.060371       -28.8542
   5   2.0000      -0.794733       -21.6258
   6   2.0000      -0.649542       -17.6749
   7   2.0000      -0.568646       -15.4736
   8   2.0000      -0.502558       -13.6753
   9   2.0000      -0.455441       -12.3932
  10   2.0000      -0.442912       -12.0522
  11   2.0000      -0.384517       -10.4632
  12   2.0000      -0.379048       -10.3144
  13   2.0000      -0.284968        -7.7544
  14   2.0000      -0.250040        -6.8039
  15   0.0000      -0.036795        -1.0012
  16   0.0000      -0.007870        -0.2141
  17   0.0000       0.071278         1.9396
  18   0.0000       0.103779         2.8240
  19   0.0000       0.113290         3.0828

MULLIKEN ATOMIC CHARGES
-----------------------
   0 C :    0.179513
   1 O :   -0.173500
   2 C :   -0.052924
   3 C :    0.006871
   4 H :   -0.028191
   5 H :   -0.004484
   6 H :    0.015292
   7 H :    0.057422
Sum of atomic charges:   -0.0000000

LOEWDIN ATOMIC CHARGES
----------------------
   0 C :   -0.035187
   1 O :    0.025632
   2 C :   -0.050793
   3 C :   -0.011672
   4 H :   -0.014401
   5 H :    0.020672
   6 H :    0.013037
   7 H :    0.052711

  Mayer bond orders larger than 0.100000
B(  0-C ,  1-O ) :   2.2385 B(  0-C ,  2-C ) :   0.9892 B(  0-C ,  4-H ) :   0.9344
B(  2-C ,  3-C ) :   2.0068 B(  2-C ,  5-H ) :   0.9484 B(  3-C ,  6-H ) :   0.9403
B(  3-C ,  7-H ) :   0.9513

-----------------------------------------------------------------------------
         ABSORPTION SPECTRUM VIA TRANSITION ELECTRIC DIPOLE MOMENTS
-----------------------------------------------------------------------------
State   Energy    Wavelength  fosc         T2        TX        TY        TZ
        (cm-1)      (nm)                 (au**2)    (au)      (au)      (au)
-----------------------------------------------------------------------------
   1   32248.3    310.1   0.000738872   0.00754  -0.07834  -0.03270   0.01832

FINAL SINGLE POINT ENERGY      -191.625537570164

DIPOLE MOMENT
-------------
                                X             Y             Z
Electronic contribution:     -2.52418      -1.06390      -1.05950
Nuclear contribution   :      2.89406       1.73713       1.51152
                        -----------------------------------------
Total Dipole Moment    :      0.36988       0.67323       0.45203
                        -----------------------------------------
Magnitude (a.u.)       :      0.89128
Magnitude (Debye)      :      2.26546

Rotational constants in cm-1:     0.839791     0.192420     0.167841
Rotational constants in MHz : 25176.299085  5768.605843  5031.749364

                             ****ORCA TERMINATED NORMALLY****
TOTAL RUN TIME: 0 days 0 hours 3 minutes 19 seconds 995 msec
