                         Program Version 5.0.3 -  RELEASE  -
|  1> ! HF-3c
|  2> !TightSCF
|  3> %scf
|  4>  ConvForced true
|  5>  convergence tight
|  6>  MaxIter 500
|  7> end
|  8>
|  9> %tddft
| 10>  nroots 1
| 11> end
| 12>
| 13> # 	15912
| 14> * xyz 0 1
| 15> 		C   -1.202860  -0.394733   0.001468
| 16> 		O   -1.988833  -0.778671   0.798423
| 17> 		C    0.011187   0.443561   0.337610
| 18> 		C    1.218801   0.069855  -0.184762
| 19> 		H   -1.206009  -0.685030  -0.931503
| 20> 		H   -0.134335   1.467042   0.946000
| 21> 		H    1.193133  -0.869021  -0.906816
| 22> 		H    2.072988   0.739185  -0.051479
| 23> *
| 24>
| 25>                          ****END OF INPUT****

CARTESIAN COORDINATES (ANGSTROEM)
---------------------------------
  C     -1.202860   -0.394733    0.001468
  O     -1.988833   -0.778671    0.798423
  C      0.011187    0.443561    0.337610
  C      1.218801    0.069855   -0.184762
  H     -1.206009   -0.685030   -0.931503
  H     -0.134335    1.467042    0.946000
  H      1.193133   -0.869021   -0.906816
  H      2.072988    0.739185   -0.051479

 Total Charge           Charge          ....    0
 Multiplicity           Mult            ....    1
 Number of Electrons    NEL             ....   30
 Basis Dimension        Dim             ....   24

ORBITAL ENERGIES
----------------

  NO   OCC          E(Eh)            E(eV)
   0   2.0000     -20.389192      -554.8181
   1   2.0000     -11.310997      -307.7879
   2   2.0000     -11.177639      -304.1590
   3   2.0000     -11.173760      -304.0535
   4   2.0000      -1.430957       -38.9383
   5   2.0000      -1.061635       -28.8886
   6   2.0000      -0.883296       -24.0357
   7   2.0000      -0.778095       -21.1730
   8   2.0000      -0.659107       -17.9352
   9   2.0000      -0.642801       -17.4915
  10   2.0000      -0.592188       -16.1142
  11   2.0000      -0.546504       -14.8711
  12   2.0000      -0.513491       -13.9728
  13   2.0000      -0.416533       -11.3345
  14   2.0000      -0.384752       -10.4696
  15   0.0000       0.152585         4.1520
  16   0.0000       0.262481         7.1425
  17   0.0000       0.520900        14.1744
  18   0.0000       0.554311        15.0836
  19   0.0000       0.600773        16.3479

MULLIKEN ATOMIC CHARGES
-----------------------
   0 C :    0.153077
   1 O :   -0.338534
   2 C :   -0.147646
   3 C :   -0.238553
   4 H :    0.137439
   5 H :    0.150791
   6 H :    0.139879
   7 H :    0.143547
Sum of atomic charges:    0.0000000

LOEWDIN ATOMIC CHARGES
----------------------
   0 C :    0.140738
   1 O :   -0.233224
   2 C :   -0.116172
   3 C :   -0.153466
   4 H :    0.062145
   5 H :    0.106738
   6 H :    0.098788
   7 H :    0.094452

  Mayer bond orders larger than 0.100000
B(  0-C ,  1-O ) :   1.9345 B(  0-C ,  2-C ) :   0.9907 B(  0-C ,  4-H ) :   0.9318
B(  2-C ,  3-C ) :   1.9765 B(  2-C ,  5-H ) :   0.9509 B(  3-C ,  6-H ) :   0.9608
B(  3-C ,  7-H ) :   0.9640

-----------------------------------------------------------------------------
         ABSORPTION SPECTRUM VIA TRANSITION ELECTRIC DIPOLE MOMENTS
-----------------------------------------------------------------------------
State   Energy    Wavelength  fosc         T2        TX        TY        TZ
        (cm-1)      (nm)                 (au**2)    (au)      (au)      (au)
-----------------------------------------------------------------------------
   1   34449.7    290.3   0.000028570   0.00027   0.01164  -0.00314   0.01130

Dispersion correction           -0.025273935
FINAL SINGLE POINT ENERGY      -189.295202311832

DIPOLE MOMENT
-------------
                                X             Y             Z
Electronic contribution:     -3.01426      -0.92087       1.17256
Nuclear contribution   :      3.76322       1.29754      -1.79267
                        -----------------------------------------
Total Dipole Moment    :      0.74896       0.37668      -0.62011
                        -----------------------------------------
Magnitude (a.u.)       :      1.04277
Magnitude (Debye)      :      2.65050

Rotational constants in cm-1:     1.238843     0.157542     0.147482
Rotational constants in MHz : 37139.585402  4722.990545  4421.410744

                             ****ORCA TERMINATED NORMALLY****
TOTAL RUN TIME: 0 days 0 hours 0 minutes 10 seconds 714 msec
