                         Program Version 5.0.3 -  RELEASE  -
|  1> ! HF-3c
|  2> !TightSCF
|  3> %scf
|  4>  ConvForced true
|  5>  convergence tight
|  6>  MaxIter 500
|  7> end
|  8>
|  9> %tddft
| 10>  nroots 1
| 11> end
| 12>
| 13> # 	23849
| 14> * xyz 0 1
| 15> 		C   -0.620593  -0.439736  -0.016577
| 16> 		O   -0.568118  -1.617266   0.026307
| 17> 		C    0.614902   0.412242  -0.007716
| 18> 		C    1.864916  -0.143755   0.012351
| 19> 		H   -1.573205   0.019082  -0.197697
| 20> 		H    0.708668   1.538186   0.199970
| 21> 		H    2.105304  -1.085046  -0.316405
| 22> 		H    2.599554   0.491128   0.058494
| 23> *
| 24>
| 25>                          ****END OF INPUT****

CARTESIAN COORDINATES (ANGSTROEM)
---------------------------------
  C     -0.620593   -0.439736   -0.016577
  O     -0.568118   -1.617266    0.026307
  C      0.614902    0.412242   -0.007716
  C      1.864916   -0.143755    0.012351
  H     -1.573205    0.019082   -0.197697
  H      0.708668    1.538186    0.199970
  H      2.105304   -1.085046   -0.316405
  H      2.599554    0.491128    0.058494

 Total Charge           Charge          ....    0
 Multiplicity           Mult            ....    1
 Number of Electrons    NEL             ....   30
 Basis Dimension        Dim             ....   24

ORBITAL ENERGIES
----------------

  NO   OCC          E(Eh)            E(eV)
   0   2.0000     -20.382710      -554.6417
   1   2.0000     -11.312108      -307.8181
   2   2.0000     -11.188980      -304.4676
   3   2.0000     -11.185829      -304.3819
   4   2.0000      -1.433022       -38.9945
   5   2.0000      -1.073362       -29.2077
   6   2.0000      -0.898775       -24.4569
   7   2.0000      -0.771228       -20.9862
   8   2.0000      -0.713930       -19.4270
   9   2.0000      -0.621620       -16.9151
  10   2.0000      -0.605930       -16.4882
  11   2.0000      -0.556854       -15.1528
  12   2.0000      -0.537752       -14.6330
  13   2.0000      -0.420951       -11.4546
  14   2.0000      -0.390318       -10.6211
  15   0.0000       0.125958         3.4275
  16   0.0000       0.294280         8.0078
  17   0.0000       0.544162        14.8074
  18   0.0000       0.592215        16.1150
  19   0.0000       0.726240        19.7620

MULLIKEN ATOMIC CHARGES
-----------------------
   0 C :    0.165537
   1 O :   -0.347684
   2 C :   -0.147822
   3 C :   -0.250757
   4 H :    0.140473
   5 H :    0.148982
   6 H :    0.153961
   7 H :    0.137309
Sum of atomic charges:   -0.0000000

LOEWDIN ATOMIC CHARGES
----------------------
   0 C :    0.143652
   1 O :   -0.242659
   2 C :   -0.110638
   3 C :   -0.140157
   4 H :    0.072168
   5 H :    0.101407
   6 H :    0.096014
   7 H :    0.080213

  Mayer bond orders larger than 0.100000
B(  0-C ,  1-O ) :   1.9165 B(  0-C ,  2-C ) :   1.0124 B(  0-C ,  4-H ) :   0.9258
B(  2-C ,  3-C ) :   1.9461 B(  2-C ,  5-H ) :   0.9578 B(  3-C ,  6-H ) :   0.9653
B(  3-C ,  7-H ) :   0.9713

-----------------------------------------------------------------------------
         ABSORPTION SPECTRUM VIA TRANSITION ELECTRIC DIPOLE MOMENTS
-----------------------------------------------------------------------------
State   Energy    Wavelength  fosc         T2        TX        TY        TZ
        (cm-1)      (nm)                 (au**2)    (au)      (au)      (au)
-----------------------------------------------------------------------------
   1   33660.6    297.1   0.000306931   0.00300   0.05444   0.00383   0.00483

Dispersion correction           -0.025555165
FINAL SINGLE POINT ENERGY      -189.305934390285

DIPOLE MOMENT
-------------
                                X             Y             Z
Electronic contribution:     -2.25370      -1.75130       0.16807
Nuclear contribution   :      2.44451       2.69161      -0.24077
                        -----------------------------------------
Total Dipole Moment    :      0.19081       0.94032      -0.07271
                        -----------------------------------------
Magnitude (a.u.)       :      0.96223
Magnitude (Debye)      :      2.44580

Rotational constants in cm-1:     0.770935     0.208106     0.164513
Rotational constants in MHz : 23112.048576  6238.861241  4931.989406

                             ****ORCA TERMINATED NORMALLY****
TOTAL RUN TIME: 0 days 0 hours 0 minutes 13 seconds 143 msec
