                         Program Version 5.0.3 -  RELEASE  -
|  1> ! HF-3c
|  2> !TightSCF
|  3> %scf
|  4>  ConvForced true
|  5>  convergence tight
|  6>  MaxIter 500
|  7> end
|  8>
|  9> %tddft
| 10>  nroots 1
| 11> end
| 12>
| 13> # 	28965
| 14> * xyz 0 1
| 15> 		C   -0.603977  -0.415626   0.004517
| 16> 		O   -0.572085  -1.678610   0.008225
| 17> 		C    0.664038   0.455743   0.036164
| 18> 		C    1.837814  -0.115729  -0.039758
| 19> 		H   -1.639091   0.141947  -0.291463
| 20> 		H    0.500344   1.416842   0.055307
| 21> 		H    1.859769  -1.240586   0.067087
| 22> 		H    2.710471   0.470937   0.035250
| 23> *
| 24>
| 25>                          ****END OF INPUT****

CARTESIAN COORDINATES (ANGSTROEM)
---------------------------------
  C     -0.603977   -0.415626    0.004517
  O     -0.572085   -1.678610    0.008225
  C      0.664038    0.455743    0.036164
  C      1.837814   -0.115729   -0.039758
  H     -1.639091    0.141947   -0.291463
  H      0.500344    1.416842    0.055307
  H      1.859769   -1.240586    0.067087
  H      2.710471    0.470937    0.035250

 Total Charge           Charge          ....    0
 Multiplicity           Mult            ....    1
 Number of Electrons    NEL             ....   30
 Basis Dimension        Dim             ....   24

ORBITAL ENERGIES
----------------

  NO   OCC          E(Eh)            E(eV)
   0   2.0000     -20.347684      -553.6886
   1   2.0000     -11.279484      -306.9304
   2   2.0000     -11.195254      -304.6384
   3   2.0000     -11.194020      -304.6048
   4   2.0000      -1.360053       -37.0089
   5   2.0000      -1.089176       -29.6380
   6   2.0000      -0.877895       -23.8887
   7   2.0000      -0.750096       -20.4111
   8   2.0000      -0.698229       -18.9998
   9   2.0000      -0.610168       -16.6035
  10   2.0000      -0.582940       -15.8626
  11   2.0000      -0.534723       -14.5506
  12   2.0000      -0.512948       -13.9580
  13   2.0000      -0.407200       -11.0805
  14   2.0000      -0.400750       -10.9050
  15   0.0000       0.132353         3.6015
  16   0.0000       0.287788         7.8311
  17   0.0000       0.489783        13.3277
  18   0.0000       0.593443        16.1484
  19   0.0000       0.649977        17.6868

MULLIKEN ATOMIC CHARGES
-----------------------
   0 C :    0.171204
   1 O :   -0.355734
   2 C :   -0.193886
   3 C :   -0.220522
   4 H :    0.138321
   5 H :    0.140417
   6 H :    0.171253
   7 H :    0.148946
Sum of atomic charges:   -0.0000000

LOEWDIN ATOMIC CHARGES
----------------------
   0 C :    0.152958
   1 O :   -0.275072
   2 C :   -0.137263
   3 C :   -0.119691
   4 H :    0.085482
   5 H :    0.079932
   6 H :    0.118500
   7 H :    0.095154

  Mayer bond orders larger than 0.100000
B(  0-C ,  1-O ) :   1.9164 B(  0-C ,  2-C ) :   1.0022 B(  0-C ,  4-H ) :   0.9200
B(  2-C ,  3-C ) :   1.9616 B(  2-C ,  5-H ) :   0.9638 B(  3-C ,  6-H ) :   0.9511
B(  3-C ,  7-H ) :   0.9630

-----------------------------------------------------------------------------
         ABSORPTION SPECTRUM VIA TRANSITION ELECTRIC DIPOLE MOMENTS
-----------------------------------------------------------------------------
State   Energy    Wavelength  fosc         T2        TX        TY        TZ
        (cm-1)      (nm)                 (au**2)    (au)      (au)      (au)
-----------------------------------------------------------------------------
   1   30685.3    325.9   0.000119835   0.00129  -0.02845  -0.00229  -0.02170

Dispersion correction           -0.025705022
FINAL SINGLE POINT ENERGY      -189.328597989202

DIPOLE MOMENT
-------------
                                X             Y             Z
Electronic contribution:     -1.81699      -1.62064       0.10170
Nuclear contribution   :      2.06166       2.52783      -0.12595
                        -----------------------------------------
Total Dipole Moment    :      0.24467       0.90719      -0.02425
                        -----------------------------------------
Magnitude (a.u.)       :      0.93992
Magnitude (Debye)      :      2.38909

Rotational constants in cm-1:     0.734112     0.205400     0.160894
Rotational constants in MHz : 22008.109231  6157.744355  4823.494488

                             ****ORCA TERMINATED NORMALLY****
TOTAL RUN TIME: 0 days 0 hours 0 minutes 12 seconds 575 msec
