                         Program Version 5.0.3 -  RELEASE  -
|  1> ! HF-3c
|  2> !TightSCF
|  3> %scf
|  4>  ConvForced true
|  5>  convergence tight
|  6>  MaxIter 500
|  7> end
|  8>
|  9> %tddft
| 10>  nroots 1
| 11> end
| 12>
| 13> # 	14146
| 14> * xyz 0 1
| 15> 		C   -1.210764  -0.273377   0.009589
| 16> 		O   -1.287220  -1.380940  -0.451952
| 17> 		C    0.052598   0.562737  -0.160118
| 18> 		C    1.247021   0.049565   0.119568
| 19> 		H   -2.079475   0.156087   0.364170
| 20> 		H   -0.131243   1.443193  -0.349862
| 21> 		H    1.218579  -1.184798   0.360827
| 22> 		H    2.230579   0.685748   0.059215
| 23> *
| 24>
| 25>                          ****END OF INPUT****

CARTESIAN COORDINATES (ANGSTROEM)
---------------------------------
  C     -1.210764   -0.273377    0.009589
  O     -1.287220   -1.380940   -0.451952
  C      0.052598    0.562737   -0.160118
  C      1.247021    0.049565    0.119568
  H     -2.079475    0.156087    0.364170
  H     -0.131243    1.443193   -0.349862
  H      1.218579   -1.184798    0.360827
  H      2.230579    0.685748    0.059215

 Total Charge           Charge          ....    0
 Multiplicity           Mult            ....    1
 Number of Electrons    NEL             ....   30
 Basis Dimension        Dim             ....   24

ORBITAL ENERGIES
----------------

  NO   OCC          E(Eh)            E(eV)
   0   2.0000     -20.368005      -554.2416
   1   2.0000     -11.296433      -307.3916
   2   2.0000     -11.188672      -304.4592
   3   2.0000     -11.182495      -304.2912
   4   2.0000      -1.410302       -38.3763
   5   2.0000      -1.074468       -29.2378
   6   2.0000      -0.880654       -23.9638
   7   2.0000      -0.770015       -20.9532
   8   2.0000      -0.711612       -19.3639
   9   2.0000      -0.605521       -16.4771
  10   2.0000      -0.597421       -16.2567
  11   2.0000      -0.528680       -14.3861
  12   2.0000      -0.520069       -14.1518
  13   2.0000      -0.414859       -11.2889
  14   2.0000      -0.395311       -10.7570
  15   0.0000       0.157265         4.2794
  16   0.0000       0.271625         7.3913
  17   0.0000       0.470107        12.7923
  18   0.0000       0.519114        14.1258
  19   0.0000       0.702408        19.1135

MULLIKEN ATOMIC CHARGES
-----------------------
   0 C :    0.160986
   1 O :   -0.349478
   2 C :   -0.216731
   3 C :   -0.183745
   4 H :    0.141448
   5 H :    0.135748
   6 H :    0.160738
   7 H :    0.151033
Sum of atomic charges:   -0.0000000

LOEWDIN ATOMIC CHARGES
----------------------
   0 C :    0.147243
   1 O :   -0.251763
   2 C :   -0.162632
   3 C :   -0.104130
   4 H :    0.071440
   5 H :    0.073489
   6 H :    0.120290
   7 H :    0.106063

  Mayer bond orders larger than 0.100000
B(  0-C ,  1-O ) :   1.9269 B(  0-C ,  2-C ) :   0.9930 B(  0-C ,  4-H ) :   0.9331
B(  2-C ,  3-C ) :   1.9679 B(  2-C ,  5-H ) :   0.9639 B(  3-C ,  6-H ) :   0.9503
B(  3-C ,  7-H ) :   0.9576

-----------------------------------------------------------------------------
         ABSORPTION SPECTRUM VIA TRANSITION ELECTRIC DIPOLE MOMENTS
-----------------------------------------------------------------------------
State   Energy    Wavelength  fosc         T2        TX        TY        TZ
        (cm-1)      (nm)                 (au**2)    (au)      (au)      (au)
-----------------------------------------------------------------------------
   1   33817.4    295.7   0.000049262   0.00048  -0.01909   0.00449   0.00974

Dispersion correction           -0.025672687
FINAL SINGLE POINT ENERGY      -189.275784466963

DIPOLE MOMENT
-------------
                                X             Y             Z
Electronic contribution:     -1.96122      -1.45160      -0.48354
Nuclear contribution   :      2.37116       2.14839       0.88229
                        -----------------------------------------
Total Dipole Moment    :      0.40994       0.69680       0.39875
                        -----------------------------------------
Magnitude (a.u.)       :      0.90143
Magnitude (Debye)      :      2.29126

Rotational constants in cm-1:     0.817912     0.195122     0.163255
Rotational constants in MHz : 24520.385493  5849.600485  4894.275370

                             ****ORCA TERMINATED NORMALLY****
TOTAL RUN TIME: 0 days 0 hours 0 minutes 15 seconds 994 msec
