                         Program Version 5.0.3 -  RELEASE  -
|  1> ! HF-3c
|  2> !TightSCF
|  3> %scf
|  4>  ConvForced true
|  5>  convergence tight
|  6>  MaxIter 500
|  7> end
|  8>
|  9> %tddft
| 10>  nroots 1
| 11> end
| 12>
| 13> # 	8279
| 14> * xyz 0 1
| 15> 		C   -1.136432  -0.343969   0.034409
| 16> 		O   -2.217114  -0.319497   0.612080
| 17> 		C    0.001657   0.329446   0.351694
| 18> 		C    1.167329   0.171243  -0.313153
| 19> 		H   -1.148297  -1.036598  -0.795552
| 20> 		H   -0.012006   1.041091   1.303646
| 21> 		H    1.353535  -0.691326  -1.051877
| 22> 		H    2.045792   0.843808  -0.070595
| 23> *
| 24>
| 25>                          ****END OF INPUT****

CARTESIAN COORDINATES (ANGSTROEM)
---------------------------------
  C     -1.136432   -0.343969    0.034409
  O     -2.217114   -0.319497    0.612080
  C      0.001657    0.329446    0.351694
  C      1.167329    0.171243   -0.313153
  H     -1.148297   -1.036598   -0.795552
  H     -0.012006    1.041091    1.303646
  H      1.353535   -0.691326   -1.051877
  H      2.045792    0.843808   -0.070595

 Total Charge           Charge          ....    0
 Multiplicity           Mult            ....    1
 Number of Electrons    NEL             ....   30
 Basis Dimension        Dim             ....   24

ORBITAL ENERGIES
----------------

  NO   OCC          E(Eh)            E(eV)
   0   2.0000     -20.343922      -553.5863
   1   2.0000     -11.286446      -307.1198
   2   2.0000     -11.200610      -304.7841
   3   2.0000     -11.194505      -304.6180
   4   2.0000      -1.383606       -37.6498
   5   2.0000      -1.093604       -29.7585
   6   2.0000      -0.891449       -24.2576
   7   2.0000      -0.768533       -20.9129
   8   2.0000      -0.662793       -18.0355
   9   2.0000      -0.640091       -17.4178
  10   2.0000      -0.557618       -15.1735
  11   2.0000      -0.545190       -14.8354
  12   2.0000      -0.523771       -14.2525
  13   2.0000      -0.410607       -11.1732
  14   2.0000      -0.378829       -10.3085
  15   0.0000       0.112598         3.0639
  16   0.0000       0.329640         8.9700
  17   0.0000       0.500861        13.6291
  18   0.0000       0.577280        15.7086
  19   0.0000       0.636128        17.3099

MULLIKEN ATOMIC CHARGES
-----------------------
   0 C :    0.131014
   1 O :   -0.348564
   2 C :   -0.182054
   3 C :   -0.193122
   4 H :    0.134992
   5 H :    0.162623
   6 H :    0.147675
   7 H :    0.147437
Sum of atomic charges:    0.0000000

LOEWDIN ATOMIC CHARGES
----------------------
   0 C :    0.123043
   1 O :   -0.263424
   2 C :   -0.143457
   3 C :   -0.101328
   4 H :    0.070226
   5 H :    0.114999
   6 H :    0.100806
   7 H :    0.099134

  Mayer bond orders larger than 0.100000
B(  0-C ,  1-O ) :   1.8512 B(  0-C ,  2-C ) :   1.1029 B(  0-C ,  4-H ) :   0.9308
B(  1-O ,  3-C ) :   0.1104 B(  2-C ,  3-C ) :   1.8939 B(  2-C ,  5-H ) :   0.9436
B(  3-C ,  6-H ) :   0.9608 B(  3-C ,  7-H ) :   0.9636

-----------------------------------------------------------------------------
         ABSORPTION SPECTRUM VIA TRANSITION ELECTRIC DIPOLE MOMENTS
-----------------------------------------------------------------------------
State   Energy    Wavelength  fosc         T2        TX        TY        TZ
        (cm-1)      (nm)                 (au**2)    (au)      (au)      (au)
-----------------------------------------------------------------------------
   1   29664.4    337.1   0.000044137   0.00049  -0.01885   0.01156  -0.00080

Dispersion correction           -0.025531710
FINAL SINGLE POINT ENERGY      -189.324720697529

DIPOLE MOMENT
-------------
                                X             Y             Z
Electronic contribution:     -3.01094      -0.28132       0.81031
Nuclear contribution   :      4.27356       0.34892      -1.24267
                        -----------------------------------------
Total Dipole Moment    :      1.26262       0.06760      -0.43237
                        -----------------------------------------
Magnitude (a.u.)       :      1.33631
Magnitude (Debye)      :      3.39662

Rotational constants in cm-1:     1.668716     0.157636     0.144234
Rotational constants in MHz : 50026.852066  4725.818207  4324.037186

                             ****ORCA TERMINATED NORMALLY****
TOTAL RUN TIME: 0 days 0 hours 0 minutes 15 seconds 977 msec
