                         Program Version 5.0.3 -  RELEASE  -
|  1> ! B3LYP cc-pVDZ
|  2> !TightSCF
|  3> %scf
|  4>  ConvForced true
|  5>  convergence tight
|  6>  MaxIter 500
|  7> end
|  8>
|  9> %tddft
| 10>  nroots 1
| 11> end
| 12>
| 13> # 	29118
| 14> * xyz 0 1
| 15> 		C   -0.567929  -0.429328   0.009367
| 16> 		O   -0.576697  -1.646261  -0.022911
| 17> 		C    0.608502   0.401410  -0.012048
| 18> 		C    1.852667  -0.108802  -0.000987
| 19> 		H   -1.483003   0.284300   0.303788
| 20> 		H    0.297050   1.644214  -0.164001
| 21> 		H    1.883023  -1.260475   0.250320
| 22> 		H    2.838934   0.372168   0.001863
| 23> *
| 24>
| 25>                          ****END OF INPUT****

CARTESIAN COORDINATES (ANGSTROEM)
---------------------------------
  C     -0.567929   -0.429328    0.009367
  O     -0.576697   -1.646261   -0.022911
  C      0.608502    0.401410   -0.012048
  C      1.852667   -0.108802   -0.000987
  H     -1.483003    0.284300    0.303788
  H      0.297050    1.644214   -0.164001
  H      1.883023   -1.260475    0.250320
  H      2.838934    0.372168    0.001863

 Total Charge           Charge          ....    0
 Multiplicity           Mult            ....    1
 Number of Electrons    NEL             ....   30
 Basis Dimension        Dim             ....   76

ORBITAL ENERGIES
----------------

  NO   OCC          E(Eh)            E(eV)
   0   2.0000     -19.145423      -520.9734
   1   2.0000     -10.282147      -279.7915
   2   2.0000     -10.228492      -278.3314
   3   2.0000     -10.223166      -278.1865
   4   2.0000      -1.047038       -28.4913
   5   2.0000      -0.795327       -21.6420
   6   2.0000      -0.662423       -18.0255
   7   2.0000      -0.525846       -14.3090
   8   2.0000      -0.488141       -13.2830
   9   2.0000      -0.451494       -12.2858
  10   2.0000      -0.425935       -11.5903
  11   2.0000      -0.397458       -10.8154
  12   2.0000      -0.358231        -9.7479
  13   2.0000      -0.291138        -7.9223
  14   2.0000      -0.260652        -7.0927
  15   0.0000      -0.079115        -2.1528
  16   0.0000       0.034426         0.9368
  17   0.0000       0.061706         1.6791
  18   0.0000       0.080709         2.1962
  19   0.0000       0.108158         2.9431

MULLIKEN ATOMIC CHARGES
-----------------------
   0 C :    0.173241
   1 O :   -0.189062
   2 C :   -0.161709
   3 C :    0.045899
   4 H :   -0.013022
   5 H :    0.031332
   6 H :    0.065766
   7 H :    0.047554
Sum of atomic charges:    0.0000000

LOEWDIN ATOMIC CHARGES
----------------------
   0 C :   -0.054163
   1 O :   -0.003142
   2 C :   -0.100918
   3 C :    0.018058
   4 H :    0.000281
   5 H :    0.050297
   6 H :    0.055966
   7 H :    0.033622

  Mayer bond orders larger than 0.100000
B(  0-C ,  1-O ) :   2.1795 B(  0-C ,  2-C ) :   1.0767 B(  0-C ,  4-H ) :   0.8935
B(  2-C ,  3-C ) :   1.9243 B(  2-C ,  5-H ) :   0.9256 B(  3-C ,  6-H ) :   0.9208
B(  3-C ,  7-H ) :   0.9497

-----------------------------------------------------------------------------
         ABSORPTION SPECTRUM VIA TRANSITION ELECTRIC DIPOLE MOMENTS
-----------------------------------------------------------------------------
State   Energy    Wavelength  fosc         T2        TX        TY        TZ
        (cm-1)      (nm)                 (au**2)    (au)      (au)      (au)
-----------------------------------------------------------------------------
   1   27150.1    368.3   0.000293700   0.00356   0.02064  -0.02830  -0.04832

FINAL SINGLE POINT ENERGY      -191.653907110242

DIPOLE MOMENT
-------------
                                X             Y             Z
Electronic contribution:     -1.64050      -1.94599      -0.30981
Nuclear contribution   :      2.16127       2.76139       0.36844
                        -----------------------------------------
Total Dipole Moment    :      0.52076       0.81540       0.05863
                        -----------------------------------------
Magnitude (a.u.)       :      0.96928
Magnitude (Debye)      :      2.46372

Rotational constants in cm-1:     0.722776     0.210727     0.163774
Rotational constants in MHz : 21668.276226  6317.423572  4909.827769

                             ****ORCA TERMINATED NORMALLY****
TOTAL RUN TIME: 0 days 0 hours 3 minutes 4 seconds 52 msec
