                         Program Version 5.0.3 -  RELEASE  -
|  1> ! HF-3c
|  2> !TightSCF
|  3> %scf
|  4>  ConvForced true
|  5>  convergence tight
|  6>  MaxIter 500
|  7> end
|  8>
|  9> %tddft
| 10>  nroots 1
| 11> end
| 12>
| 13> # 	8081
| 14> * xyz 0 1
| 15> 		C   -1.199580  -0.386477  -0.023293
| 16> 		O   -1.287507  -1.590253   0.131180
| 17> 		C    0.045802   0.504041   0.085390
| 18> 		C    1.185731   0.030790  -0.022046
| 19> 		H   -2.197082   0.290047  -0.238960
| 20> 		H   -0.285900   1.503507   0.171382
| 21> 		H    1.479670  -0.904811  -0.104975
| 22> 		H    2.256867   0.552336   0.009376
| 23> *
| 24>
| 25>                          ****END OF INPUT****

CARTESIAN COORDINATES (ANGSTROEM)
---------------------------------
  C     -1.199580   -0.386477   -0.023293
  O     -1.287507   -1.590253    0.131180
  C      0.045802    0.504041    0.085390
  C      1.185731    0.030790   -0.022046
  H     -2.197082    0.290047   -0.238960
  H     -0.285900    1.503507    0.171382
  H      1.479670   -0.904811   -0.104975
  H      2.256867    0.552336    0.009376

 Total Charge           Charge          ....    0
 Multiplicity           Mult            ....    1
 Number of Electrons    NEL             ....   30
 Basis Dimension        Dim             ....   24

ORBITAL ENERGIES
----------------

  NO   OCC          E(Eh)            E(eV)
   0   2.0000     -20.367705      -554.2334
   1   2.0000     -11.290224      -307.2226
   2   2.0000     -11.205343      -304.9129
   3   2.0000     -11.200507      -304.7813
   4   2.0000      -1.393737       -37.9255
   5   2.0000      -1.106087       -30.0981
   6   2.0000      -0.886668       -24.1275
   7   2.0000      -0.758070       -20.6281
   8   2.0000      -0.686921       -18.6921
   9   2.0000      -0.649233       -17.6665
  10   2.0000      -0.588405       -16.0113
  11   2.0000      -0.534501       -14.5445
  12   2.0000      -0.516024       -14.0417
  13   2.0000      -0.427399       -11.6301
  14   2.0000      -0.395106       -10.7514
  15   0.0000       0.150949         4.1075
  16   0.0000       0.314207         8.5500
  17   0.0000       0.437134        11.8950
  18   0.0000       0.570731        15.5304
  19   0.0000       0.632823        17.2200

MULLIKEN ATOMIC CHARGES
-----------------------
   0 C :    0.196441
   1 O :   -0.355808
   2 C :   -0.186992
   3 C :   -0.235240
   4 H :    0.124681
   5 H :    0.150417
   6 H :    0.153359
   7 H :    0.153142
Sum of atomic charges:   -0.0000000

LOEWDIN ATOMIC CHARGES
----------------------
   0 C :    0.162392
   1 O :   -0.259839
   2 C :   -0.133117
   3 C :   -0.134994
   4 H :    0.072093
   5 H :    0.094491
   6 H :    0.090845
   7 H :    0.108129

  Mayer bond orders larger than 0.100000
B(  0-C ,  1-O ) :   1.9385 B(  0-C ,  2-C ) :   0.9765 B(  0-C ,  4-H ) :   0.9109
B(  2-C ,  3-C ) :   1.9945 B(  2-C ,  5-H ) :   0.9528 B(  3-C ,  6-H ) :   0.9584
B(  3-C ,  7-H ) :   0.9496

-----------------------------------------------------------------------------
         ABSORPTION SPECTRUM VIA TRANSITION ELECTRIC DIPOLE MOMENTS
-----------------------------------------------------------------------------
State   Energy    Wavelength  fosc         T2        TX        TY        TZ
        (cm-1)      (nm)                 (au**2)    (au)      (au)      (au)
-----------------------------------------------------------------------------
   1   33254.9    300.7   0.000120076   0.00119   0.03432  -0.00015  -0.00334

Dispersion correction           -0.025311061
FINAL SINGLE POINT ENERGY      -189.297655201023

DIPOLE MOMENT
-------------
                                X             Y             Z
Electronic contribution:     -2.06684      -1.84289       0.17942
Nuclear contribution   :      2.43055       2.82084      -0.31346
                        -----------------------------------------
Total Dipole Moment    :      0.36371       0.97795      -0.13404
                        -----------------------------------------
Magnitude (a.u.)       :      1.05197
Magnitude (Debye)      :      2.67390

Rotational constants in cm-1:     0.823057     0.194177     0.158030
Rotational constants in MHz : 24674.631885  5821.265824  4737.625749

                             ****ORCA TERMINATED NORMALLY****
TOTAL RUN TIME: 0 days 0 hours 0 minutes 11 seconds 99 msec
