                         Program Version 5.0.3 -  RELEASE  -
|  1> ! B3LYP cc-pVDZ
|  2> !TightSCF
|  3> %scf
|  4>  ConvForced true
|  5>  convergence tight
|  6>  MaxIter 500
|  7> end
|  8>
|  9> %tddft
| 10>  nroots 1
| 11> end
| 12>
| 13> # 	8342
| 14> * xyz 0 1
| 15> 		C   -1.186974  -0.277818  -0.111549
| 16> 		O   -1.195340  -1.456866  -0.123483
| 17> 		C    0.023143   0.573112  -0.021591
| 18> 		C    1.226333  -0.008377  -0.104040
| 19> 		H   -2.089352   0.129577   0.118110
| 20> 		H   -0.120125   1.598389  -0.003656
| 21> 		H    1.375914  -1.087473   0.013194
| 22> 		H    2.030305   0.503469   0.183881
| 23> *
| 24>
| 25>                          ****END OF INPUT****

CARTESIAN COORDINATES (ANGSTROEM)
---------------------------------
  C     -1.186974   -0.277818   -0.111549
  O     -1.195340   -1.456866   -0.123483
  C      0.023143    0.573112   -0.021591
  C      1.226333   -0.008377   -0.104040
  H     -2.089352    0.129577    0.118110
  H     -0.120125    1.598389   -0.003656
  H      1.375914   -1.087473    0.013194
  H      2.030305    0.503469    0.183881

 Total Charge           Charge          ....    0
 Multiplicity           Mult            ....    1
 Number of Electrons    NEL             ....   30
 Basis Dimension        Dim             ....   76

ORBITAL ENERGIES
----------------

  NO   OCC          E(Eh)            E(eV)
   0   2.0000     -19.130472      -520.5666
   1   2.0000     -10.257674      -279.1255
   2   2.0000     -10.200549      -277.5710
   3   2.0000     -10.199332      -277.5379
   4   2.0000      -1.060640       -28.8615
   5   2.0000      -0.797036       -21.6885
   6   2.0000      -0.663742       -18.0613
   7   2.0000      -0.560251       -15.2452
   8   2.0000      -0.517380       -14.0786
   9   2.0000      -0.449146       -12.2219
  10   2.0000      -0.429632       -11.6909
  11   2.0000      -0.404563       -11.0087
  12   2.0000      -0.385220       -10.4824
  13   2.0000      -0.287970        -7.8361
  14   2.0000      -0.249226        -6.7818
  15   0.0000      -0.068729        -1.8702
  16   0.0000       0.059277         1.6130
  17   0.0000       0.083029         2.2593
  18   0.0000       0.100732         2.7411
  19   0.0000       0.133112         3.6222

MULLIKEN ATOMIC CHARGES
-----------------------
   0 C :    0.217060
   1 O :   -0.172295
   2 C :   -0.110470
   3 C :    0.114375
   4 H :   -0.056750
   5 H :   -0.027974
   6 H :    0.036843
   7 H :   -0.000790
Sum of atomic charges:   -0.0000000

LOEWDIN ATOMIC CHARGES
----------------------
   0 C :   -0.047713
   1 O :    0.027727
   2 C :   -0.054093
   3 C :    0.039180
   4 H :   -0.023112
   5 H :    0.014863
   6 H :    0.037769
   7 H :    0.005379

  Mayer bond orders larger than 0.100000
B(  0-C ,  1-O ) :   2.2179 B(  0-C ,  2-C ) :   1.0532 B(  0-C ,  4-H ) :   0.9367
B(  2-C ,  3-C ) :   1.9676 B(  2-C ,  5-H ) :   0.9500 B(  3-C ,  6-H ) :   0.9421
B(  3-C ,  7-H ) :   0.9425

-----------------------------------------------------------------------------
         ABSORPTION SPECTRUM VIA TRANSITION ELECTRIC DIPOLE MOMENTS
-----------------------------------------------------------------------------
State   Energy    Wavelength  fosc         T2        TX        TY        TZ
        (cm-1)      (nm)                 (au**2)    (au)      (au)      (au)
-----------------------------------------------------------------------------
   1   26935.6    371.3   0.000180927   0.00221   0.04221  -0.00032  -0.02072

FINAL SINGLE POINT ENERGY      -191.654694233387

DIPOLE MOMENT
-------------
                                X             Y             Z
Electronic contribution:     -1.91684      -1.45043      -0.47645
Nuclear contribution   :      2.25871       2.30894       0.59354
                        -----------------------------------------
Total Dipole Moment    :      0.34187       0.85851       0.11708
                        -----------------------------------------
Magnitude (a.u.)       :      0.93146
Magnitude (Debye)      :      2.36759

Rotational constants in cm-1:     0.781403     0.214811     0.168950
Rotational constants in MHz : 23425.858830  6439.861255  5064.992863

                             ****ORCA TERMINATED NORMALLY****
TOTAL RUN TIME: 0 days 0 hours 3 minutes 18 seconds 903 msec
