                         Program Version 5.0.3 -  RELEASE  -
|  1> ! HF-3c
|  2> !TightSCF
|  3> %scf
|  4>  ConvForced true
|  5>  convergence tight
|  6>  MaxIter 500
|  7> end
|  8>
|  9> %tddft
| 10>  nroots 1
| 11> end
| 12>
| 13> # 	8462
| 14> * xyz 0 1
| 15> 		C   -1.182358  -0.273177  -0.028284
| 16> 		O   -1.169917  -1.445152   0.094175
| 17> 		C    0.030659   0.523692   0.005752
| 18> 		C    1.156975  -0.023172  -0.045159
| 19> 		H   -2.166199   0.135215  -0.100408
| 20> 		H   -0.035070   1.687918   0.090014
| 21> 		H    1.194194  -1.233758   0.170627
| 22> 		H    2.197645   0.573286  -0.226218
| 23> *
| 24>
| 25>                          ****END OF INPUT****

CARTESIAN COORDINATES (ANGSTROEM)
---------------------------------
  C     -1.182358   -0.273177   -0.028284
  O     -1.169917   -1.445152    0.094175
  C      0.030659    0.523692    0.005752
  C      1.156975   -0.023172   -0.045159
  H     -2.166199    0.135215   -0.100408
  H     -0.035070    1.687918    0.090014
  H      1.194194   -1.233758    0.170627
  H      2.197645    0.573286   -0.226218

 Total Charge           Charge          ....    0
 Multiplicity           Mult            ....    1
 Number of Electrons    NEL             ....   30
 Basis Dimension        Dim             ....   24

ORBITAL ENERGIES
----------------

  NO   OCC          E(Eh)            E(eV)
   0   2.0000     -20.361924      -554.0761
   1   2.0000     -11.299617      -307.4782
   2   2.0000     -11.183100      -304.3076
   3   2.0000     -11.181277      -304.2580
   4   2.0000      -1.426788       -38.8249
   5   2.0000      -1.091661       -29.7056
   6   2.0000      -0.876054       -23.8386
   7   2.0000      -0.737790       -20.0763
   8   2.0000      -0.694093       -18.8872
   9   2.0000      -0.607142       -16.5212
  10   2.0000      -0.583451       -15.8765
  11   2.0000      -0.560033       -15.2393
  12   2.0000      -0.487412       -13.2632
  13   2.0000      -0.417037       -11.3482
  14   2.0000      -0.397298       -10.8110
  15   0.0000       0.154648         4.2082
  16   0.0000       0.333688         9.0801
  17   0.0000       0.489373        13.3165
  18   0.0000       0.515592        14.0300
  19   0.0000       0.607176        16.5221

MULLIKEN ATOMIC CHARGES
-----------------------
   0 C :    0.162445
   1 O :   -0.363171
   2 C :   -0.202146
   3 C :   -0.193665
   4 H :    0.140678
   5 H :    0.144929
   6 H :    0.163020
   7 H :    0.147911
Sum of atomic charges:   -0.0000000

LOEWDIN ATOMIC CHARGES
----------------------
   0 C :    0.142620
   1 O :   -0.260861
   2 C :   -0.162495
   3 C :   -0.115892
   4 H :    0.072447
   5 H :    0.099120
   6 H :    0.118923
   7 H :    0.106138

  Mayer bond orders larger than 0.100000
B(  0-C ,  1-O ) :   1.9021 B(  0-C ,  2-C ) :   1.0180 B(  0-C ,  4-H ) :   0.9304
B(  2-C ,  3-C ) :   1.9654 B(  2-C ,  5-H ) :   0.9478 B(  3-C ,  6-H ) :   0.9418
B(  3-C ,  7-H ) :   0.9551

-----------------------------------------------------------------------------
         ABSORPTION SPECTRUM VIA TRANSITION ELECTRIC DIPOLE MOMENTS
-----------------------------------------------------------------------------
State   Energy    Wavelength  fosc         T2        TX        TY        TZ
        (cm-1)      (nm)                 (au**2)    (au)      (au)      (au)
-----------------------------------------------------------------------------
   1   34700.0    288.2   0.000063239   0.00060  -0.01236   0.00231   0.02102

Dispersion correction           -0.026189107
FINAL SINGLE POINT ENERGY      -189.286856811518

DIPOLE MOMENT
-------------
                                X             Y             Z
Electronic contribution:     -1.89056      -1.51070       0.04284
Nuclear contribution   :      2.27257       2.36088      -0.10266
                        -----------------------------------------
Total Dipole Moment    :      0.38201       0.85018      -0.05982
                        -----------------------------------------
Magnitude (a.u.)       :      0.93398
Magnitude (Debye)      :      2.37398

Rotational constants in cm-1:     0.800241     0.223250     0.175090
Rotational constants in MHz : 23990.610828  6692.854855  5249.065381

                             ****ORCA TERMINATED NORMALLY****
TOTAL RUN TIME: 0 days 0 hours 0 minutes 15 seconds 74 msec
