                         Program Version 5.0.3 -  RELEASE  -
|  1> ! HF-3c
|  2> !TightSCF
|  3> %scf
|  4>  ConvForced true
|  5>  convergence tight
|  6>  MaxIter 500
|  7> end
|  8>
|  9> %tddft
| 10>  nroots 1
| 11> end
| 12>
| 13> # 	22663
| 14> * xyz 0 1
| 15> 		C   -0.569290  -0.424129   0.060442
| 16> 		O   -0.583894  -1.615962  -0.043730
| 17> 		C    0.590549   0.349740  -0.081711
| 18> 		C    1.855353  -0.096146   0.048865
| 19> 		H   -1.548182   0.297590   0.424235
| 20> 		H    0.524649   1.359931  -0.208918
| 21> 		H    2.013532  -1.142337   0.087128
| 22> 		H    2.839181   0.438203   0.047957
| 23> *
| 24>
| 25>                          ****END OF INPUT****

CARTESIAN COORDINATES (ANGSTROEM)
---------------------------------
  C     -0.569290   -0.424129    0.060442
  O     -0.583894   -1.615962   -0.043730
  C      0.590549    0.349740   -0.081711
  C      1.855353   -0.096146    0.048865
  H     -1.548182    0.297590    0.424235
  H      0.524649    1.359931   -0.208918
  H      2.013532   -1.142337    0.087128
  H      2.839181    0.438203    0.047957

 Total Charge           Charge          ....    0
 Multiplicity           Mult            ....    1
 Number of Electrons    NEL             ....   30
 Basis Dimension        Dim             ....   24

ORBITAL ENERGIES
----------------

  NO   OCC          E(Eh)            E(eV)
   0   2.0000     -20.364135      -554.1363
   1   2.0000     -11.300389      -307.4992
   2   2.0000     -11.197222      -304.6919
   3   2.0000     -11.188779      -304.4621
   4   2.0000      -1.410128       -38.3715
   5   2.0000      -1.087814       -29.6009
   6   2.0000      -0.900094       -24.4928
   7   2.0000      -0.746126       -20.3031
   8   2.0000      -0.700219       -19.0539
   9   2.0000      -0.622426       -16.9371
  10   2.0000      -0.594842       -16.1865
  11   2.0000      -0.550746       -14.9866
  12   2.0000      -0.522474       -14.2172
  13   2.0000      -0.404102       -10.9962
  14   2.0000      -0.390814       -10.6346
  15   0.0000       0.125664         3.4195
  16   0.0000       0.311825         8.4852
  17   0.0000       0.477192        12.9851
  18   0.0000       0.595255        16.1977
  19   0.0000       0.702383        19.1128

MULLIKEN ATOMIC CHARGES
-----------------------
   0 C :    0.184933
   1 O :   -0.360407
   2 C :   -0.204580
   3 C :   -0.194506
   4 H :    0.131445
   5 H :    0.142277
   6 H :    0.148395
   7 H :    0.152442
Sum of atomic charges:   -0.0000000

LOEWDIN ATOMIC CHARGES
----------------------
   0 C :    0.150384
   1 O :   -0.262060
   2 C :   -0.156492
   3 C :   -0.093156
   4 H :    0.080941
   5 H :    0.085501
   6 H :    0.092514
   7 H :    0.102370

  Mayer bond orders larger than 0.100000
B(  0-C ,  1-O ) :   1.8962 B(  0-C ,  2-C ) :   1.0586 B(  0-C ,  4-H ) :   0.8970
B(  2-C ,  3-C ) :   1.9156 B(  2-C ,  5-H ) :   0.9598 B(  3-C ,  6-H ) :   0.9641
B(  3-C ,  7-H ) :   0.9648

-----------------------------------------------------------------------------
         ABSORPTION SPECTRUM VIA TRANSITION ELECTRIC DIPOLE MOMENTS
-----------------------------------------------------------------------------
State   Energy    Wavelength  fosc         T2        TX        TY        TZ
        (cm-1)      (nm)                 (au**2)    (au)      (au)      (au)
-----------------------------------------------------------------------------
   1   32984.4    303.2   0.000047588   0.00047  -0.01921  -0.00378  -0.00956

Dispersion correction           -0.025872808
FINAL SINGLE POINT ENERGY      -189.308133628264

DIPOLE MOMENT
-------------
                                X             Y             Z
Electronic contribution:     -2.02292      -1.73685      -0.19435
Nuclear contribution   :      2.43751       2.68098       0.32910
                        -----------------------------------------
Total Dipole Moment    :      0.41459       0.94413       0.13475
                        -----------------------------------------
Magnitude (a.u.)       :      1.03992
Magnitude (Debye)      :      2.64326

Rotational constants in cm-1:     0.790884     0.210314     0.167514
Rotational constants in MHz : 23710.095934  6305.056827  5021.947631

                             ****ORCA TERMINATED NORMALLY****
TOTAL RUN TIME: 0 days 0 hours 0 minutes 12 seconds 486 msec
