                         Program Version 5.0.3 -  RELEASE  -
|  1> ! B3LYP cc-pVDZ
|  2> !TightSCF
|  3> %scf
|  4>  ConvForced true
|  5>  convergence tight
|  6>  MaxIter 500
|  7> end
|  8>
|  9> %tddft
| 10>  nroots 1
| 11> end
| 12>
| 13> # 	13022
| 14> * xyz 0 1
| 15> 		C   -1.231275  -0.312042  -0.042350
| 16> 		O   -1.226958  -1.572805   0.051660
| 17> 		C    0.025706   0.510943   0.031949
| 18> 		C    1.222628  -0.051197  -0.062706
| 19> 		H   -2.177192   0.159821  -0.100964
| 20> 		H   -0.247701   1.711978   0.111992
| 21> 		H    1.554412  -1.081322  -0.127499
| 22> 		H    2.118507   0.608897   0.187584
| 23> *
| 24>
| 25>                          ****END OF INPUT****

CARTESIAN COORDINATES (ANGSTROEM)
---------------------------------
  C     -1.231275   -0.312042   -0.042350
  O     -1.226958   -1.572805    0.051660
  C      0.025706    0.510943    0.031949
  C      1.222628   -0.051197   -0.062706
  H     -2.177192    0.159821   -0.100964
  H     -0.247701    1.711978    0.111992
  H      1.554412   -1.081322   -0.127499
  H      2.118507    0.608897    0.187584

 Total Charge           Charge          ....    0
 Multiplicity           Mult            ....    1
 Number of Electrons    NEL             ....   30
 Basis Dimension        Dim             ....   76

ORBITAL ENERGIES
----------------

  NO   OCC          E(Eh)            E(eV)
   0   2.0000     -19.135557      -520.7050
   1   2.0000     -10.273776      -279.5637
   2   2.0000     -10.224033      -278.2101
   3   2.0000     -10.219163      -278.0776
   4   2.0000      -1.014991       -27.6193
   5   2.0000      -0.791317       -21.5328
   6   2.0000      -0.658716       -17.9246
   7   2.0000      -0.549745       -14.9593
   8   2.0000      -0.490600       -13.3499
   9   2.0000      -0.451523       -12.2866
  10   2.0000      -0.414969       -11.2919
  11   2.0000      -0.380992       -10.3673
  12   2.0000      -0.365323        -9.9409
  13   2.0000      -0.288602        -7.8533
  14   2.0000      -0.252798        -6.8790
  15   0.0000      -0.075082        -2.0431
  16   0.0000       0.044405         1.2083
  17   0.0000       0.050032         1.3614
  18   0.0000       0.086255         2.3471
  19   0.0000       0.116798         3.1782

MULLIKEN ATOMIC CHARGES
-----------------------
   0 C :    0.217088
   1 O :   -0.234937
   2 C :   -0.158287
   3 C :    0.070517
   4 H :   -0.017941
   5 H :    0.036672
   6 H :    0.046244
   7 H :    0.040644
Sum of atomic charges:    0.0000000

LOEWDIN ATOMIC CHARGES
----------------------
   0 C :    0.004350
   1 O :   -0.054629
   2 C :   -0.089830
   3 C :    0.014989
   4 H :   -0.007714
   5 H :    0.052753
   6 H :    0.036158
   7 H :    0.043922

  Mayer bond orders larger than 0.100000
B(  0-C ,  1-O ) :   2.1384 B(  0-C ,  2-C ) :   1.0585 B(  0-C ,  4-H ) :   0.9336
B(  2-C ,  3-C ) :   1.9486 B(  2-C ,  5-H ) :   0.9272 B(  3-C ,  6-H ) :   0.9468
B(  3-C ,  7-H ) :   0.9398

-----------------------------------------------------------------------------
         ABSORPTION SPECTRUM VIA TRANSITION ELECTRIC DIPOLE MOMENTS
-----------------------------------------------------------------------------
State   Energy    Wavelength  fosc         T2        TX        TY        TZ
        (cm-1)      (nm)                 (au**2)    (au)      (au)      (au)
-----------------------------------------------------------------------------
   1   25640.2    390.0   0.000058501   0.00075   0.00814   0.01307  -0.02267

FINAL SINGLE POINT ENERGY      -191.668610956611

DIPOLE MOMENT
-------------
                                X             Y             Z
Electronic contribution:     -1.98618      -1.84224      -0.09493
Nuclear contribution   :      2.37356       2.76656       0.06613
                        -----------------------------------------
Total Dipole Moment    :      0.38737       0.92433      -0.02880
                        -----------------------------------------
Magnitude (a.u.)       :      1.00263
Magnitude (Debye)      :      2.54849

Rotational constants in cm-1:     0.717248     0.203398     0.159017
Rotational constants in MHz : 21502.543054  6097.725410  4767.215520

                             ****ORCA TERMINATED NORMALLY****
TOTAL RUN TIME: 0 days 0 hours 3 minutes 21 seconds 687 msec
