                         Program Version 5.0.3 -  RELEASE  -
|  1> ! B3LYP cc-pVDZ
|  2> !TightSCF
|  3> %scf
|  4>  ConvForced true
|  5>  convergence tight
|  6>  MaxIter 500
|  7> end
|  8>
|  9> %tddft
| 10>  nroots 1
| 11> end
| 12>
| 13> # 	16713
| 14> * xyz 0 1
| 15> 		C   -1.202332  -0.351228  -0.043882
| 16> 		O   -1.753708  -1.060926  -0.833803
| 17> 		C    0.057744   0.452602  -0.251296
| 18> 		C    1.239387   0.003822   0.195736
| 19> 		H   -1.623051  -0.219735   0.908960
| 20> 		H    0.011264   1.489402  -0.635049
| 21> 		H    1.303190  -0.958920   0.587848
| 22> 		H    2.051645   0.676945   0.031717
| 23> *
| 24>
| 25>                          ****END OF INPUT****

CARTESIAN COORDINATES (ANGSTROEM)
---------------------------------
  C     -1.202332   -0.351228   -0.043882
  O     -1.753708   -1.060926   -0.833803
  C      0.057744    0.452602   -0.251296
  C      1.239387    0.003822    0.195736
  H     -1.623051   -0.219735    0.908960
  H      0.011264    1.489402   -0.635049
  H      1.303190   -0.958920    0.587848
  H      2.051645    0.676945    0.031717

 Total Charge           Charge          ....    0
 Multiplicity           Mult            ....    1
 Number of Electrons    NEL             ....   30
 Basis Dimension        Dim             ....   76

ORBITAL ENERGIES
----------------

  NO   OCC          E(Eh)            E(eV)
   0   2.0000     -19.144959      -520.9608
   1   2.0000     -10.276391      -279.6348
   2   2.0000     -10.205922      -277.7173
   3   2.0000     -10.197148      -277.4785
   4   2.0000      -1.058659       -28.8076
   5   2.0000      -0.796254       -21.6672
   6   2.0000      -0.652656       -17.7597
   7   2.0000      -0.563337       -15.3292
   8   2.0000      -0.504038       -13.7156
   9   2.0000      -0.456893       -12.4327
  10   2.0000      -0.438447       -11.9308
  11   2.0000      -0.402298       -10.9471
  12   2.0000      -0.378120       -10.2892
  13   2.0000      -0.285405        -7.7663
  14   2.0000      -0.255660        -6.9569
  15   0.0000      -0.034408        -0.9363
  16   0.0000      -0.008242        -0.2243
  17   0.0000       0.081354         2.2138
  18   0.0000       0.102494         2.7890
  19   0.0000       0.113157         3.0792

MULLIKEN ATOMIC CHARGES
-----------------------
   0 C :    0.201712
   1 O :   -0.170642
   2 C :   -0.131872
   3 C :    0.079816
   4 H :   -0.018679
   5 H :    0.019828
   6 H :    0.000216
   7 H :    0.019620
Sum of atomic charges:    0.0000000

LOEWDIN ATOMIC CHARGES
----------------------
   0 C :   -0.023001
   1 O :    0.025155
   2 C :   -0.052767
   3 C :   -0.018318
   4 H :   -0.013614
   5 H :    0.039048
   6 H :    0.014521
   7 H :    0.028974

  Mayer bond orders larger than 0.100000
B(  0-C ,  1-O ) :   2.2532 B(  0-C ,  2-C ) :   0.9658 B(  0-C ,  4-H ) :   0.9244
B(  2-C ,  3-C ) :   2.0562 B(  2-C ,  5-H ) :   0.9350 B(  3-C ,  6-H ) :   0.9467
B(  3-C ,  7-H ) :   0.9401

-----------------------------------------------------------------------------
         ABSORPTION SPECTRUM VIA TRANSITION ELECTRIC DIPOLE MOMENTS
-----------------------------------------------------------------------------
State   Energy    Wavelength  fosc         T2        TX        TY        TZ
        (cm-1)      (nm)                 (au**2)    (au)      (au)      (au)
-----------------------------------------------------------------------------
   1   33197.0    301.2   0.000111867   0.00111   0.03239   0.00612   0.00479

FINAL SINGLE POINT ENERGY      -191.637502679809

DIPOLE MOMENT
-------------
                                X             Y             Z
Electronic contribution:     -2.77030      -1.31684      -1.21037
Nuclear contribution   :      3.30023       1.89976       1.74210
                        -----------------------------------------
Total Dipole Moment    :      0.52993       0.58292       0.53172
                        -----------------------------------------
Magnitude (a.u.)       :      0.95045
Magnitude (Debye)      :      2.41586

Rotational constants in cm-1:     1.087734     0.160984     0.154183
Rotational constants in MHz : 32609.451020  4826.174072  4622.284529

                             ****ORCA TERMINATED NORMALLY****
TOTAL RUN TIME: 0 days 0 hours 3 minutes 16 seconds 152 msec
