                         Program Version 5.0.3 -  RELEASE  -
|  1> ! HF-3c
|  2> !TightSCF
|  3> %scf
|  4>  ConvForced true
|  5>  convergence tight
|  6>  MaxIter 500
|  7> end
|  8>
|  9> %tddft
| 10>  nroots 1
| 11> end
| 12>
| 13> # 	4622
| 14> * xyz 0 1
| 15> 		C   -1.194234  -0.344901  -0.059122
| 16> 		O   -1.324211  -1.479685   0.281897
| 17> 		C   -0.001288   0.577901   0.116972
| 18> 		C    1.212167   0.054539  -0.089392
| 19> 		H   -2.019489   0.212933  -0.583986
| 20> 		H   -0.215572   1.633990   0.452712
| 21> 		H    1.278698  -1.024796  -0.187823
| 22> 		H    2.295204   0.393671   0.074151
| 23> *
| 24>
| 25>                          ****END OF INPUT****

CARTESIAN COORDINATES (ANGSTROEM)
---------------------------------
  C     -1.194234   -0.344901   -0.059122
  O     -1.324211   -1.479685    0.281897
  C     -0.001288    0.577901    0.116972
  C      1.212167    0.054539   -0.089392
  H     -2.019489    0.212933   -0.583986
  H     -0.215572    1.633990    0.452712
  H      1.278698   -1.024796   -0.187823
  H      2.295204    0.393671    0.074151

 Total Charge           Charge          ....    0
 Multiplicity           Mult            ....    1
 Number of Electrons    NEL             ....   30
 Basis Dimension        Dim             ....   24

ORBITAL ENERGIES
----------------

  NO   OCC          E(Eh)            E(eV)
   0   2.0000     -20.380458      -554.5805
   1   2.0000     -11.302519      -307.5572
   2   2.0000     -11.187635      -304.4310
   3   2.0000     -11.180733      -304.2432
   4   2.0000      -1.417836       -38.5813
   5   2.0000      -1.068301       -29.0700
   6   2.0000      -0.877905       -23.8890
   7   2.0000      -0.746814       -20.3218
   8   2.0000      -0.686565       -18.6824
   9   2.0000      -0.619970       -16.8702
  10   2.0000      -0.607533       -16.5318
  11   2.0000      -0.531614       -14.4659
  12   2.0000      -0.517356       -14.0780
  13   2.0000      -0.406121       -11.0511
  14   2.0000      -0.394855       -10.7446
  15   0.0000       0.153292         4.1713
  16   0.0000       0.272362         7.4114
  17   0.0000       0.504137        13.7183
  18   0.0000       0.590118        16.0579
  19   0.0000       0.655263        17.8306

MULLIKEN ATOMIC CHARGES
-----------------------
   0 C :    0.185417
   1 O :   -0.354073
   2 C :   -0.171778
   3 C :   -0.226130
   4 H :    0.128687
   5 H :    0.148295
   6 H :    0.141599
   7 H :    0.147983
Sum of atomic charges:   -0.0000000

LOEWDIN ATOMIC CHARGES
----------------------
   0 C :    0.159362
   1 O :   -0.251193
   2 C :   -0.132810
   3 C :   -0.132838
   4 H :    0.066666
   5 H :    0.099421
   6 H :    0.090440
   7 H :    0.100952

  Mayer bond orders larger than 0.100000
B(  0-C ,  1-O ) :   1.9389 B(  0-C ,  2-C ) :   0.9881 B(  0-C ,  4-H ) :   0.9156
B(  2-C ,  3-C ) :   1.9746 B(  2-C ,  5-H ) :   0.9540 B(  3-C ,  6-H ) :   0.9614
B(  3-C ,  7-H ) :   0.9614

-----------------------------------------------------------------------------
         ABSORPTION SPECTRUM VIA TRANSITION ELECTRIC DIPOLE MOMENTS
-----------------------------------------------------------------------------
State   Energy    Wavelength  fosc         T2        TX        TY        TZ
        (cm-1)      (nm)                 (au**2)    (au)      (au)      (au)
-----------------------------------------------------------------------------
   1   35138.2    284.6   0.000065745   0.00062   0.02480  -0.00070   0.00057

Dispersion correction           -0.025177132
FINAL SINGLE POINT ENERGY      -189.317652220740

DIPOLE MOMENT
-------------
                                X             Y             Z
Electronic contribution:     -2.18133      -1.52785       0.27235
Nuclear contribution   :      2.55606       2.39517      -0.48666
                        -----------------------------------------
Total Dipole Moment    :      0.37473       0.86732      -0.21431
                        -----------------------------------------
Magnitude (a.u.)       :      0.96881
Magnitude (Debye)      :      2.46252

Rotational constants in cm-1:     0.785241     0.193671     0.159837
Rotational constants in MHz : 23540.943679  5806.121753  4791.789555

                             ****ORCA TERMINATED NORMALLY****
TOTAL RUN TIME: 0 days 0 hours 0 minutes 9 seconds 188 msec
