                         Program Version 5.0.3 -  RELEASE  -
|  1> ! HF-3c
|  2> !TightSCF
|  3> %scf
|  4>  ConvForced true
|  5>  convergence tight
|  6>  MaxIter 500
|  7> end
|  8>
|  9> %tddft
| 10>  nroots 1
| 11> end
| 12>
| 13> # 	8060
| 14> * xyz 0 1
| 15> 		C   -1.143823  -0.317165   0.082547
| 16> 		O   -1.242207  -1.521150   0.041150
| 17> 		C    0.015128   0.457260   0.086418
| 18> 		C    1.241759  -0.017598   0.061006
| 19> 		H   -2.160515   0.145265  -0.140336
| 20> 		H   -0.252934   1.530966  -0.069270
| 21> 		H    1.582594  -1.088021  -0.151204
| 22> 		H    1.969670   0.794742  -0.019993
| 23> *
| 24>
| 25>                          ****END OF INPUT****

CARTESIAN COORDINATES (ANGSTROEM)
---------------------------------
  C     -1.143823   -0.317165    0.082547
  O     -1.242207   -1.521150    0.041150
  C      0.015128    0.457260    0.086418
  C      1.241759   -0.017598    0.061006
  H     -2.160515    0.145265   -0.140336
  H     -0.252934    1.530966   -0.069270
  H      1.582594   -1.088021   -0.151204
  H      1.969670    0.794742   -0.019993

 Total Charge           Charge          ....    0
 Multiplicity           Mult            ....    1
 Number of Electrons    NEL             ....   30
 Basis Dimension        Dim             ....   24

ORBITAL ENERGIES
----------------

  NO   OCC          E(Eh)            E(eV)
   0   2.0000     -20.346419      -553.6542
   1   2.0000     -11.282374      -307.0090
   2   2.0000     -11.200468      -304.7802
   3   2.0000     -11.194700      -304.6233
   4   2.0000      -1.394357       -37.9424
   5   2.0000      -1.095254       -29.8034
   6   2.0000      -0.904173       -24.6038
   7   2.0000      -0.730563       -19.8796
   8   2.0000      -0.704079       -19.1590
   9   2.0000      -0.621008       -16.8985
  10   2.0000      -0.582689       -15.8558
  11   2.0000      -0.545130       -14.8337
  12   2.0000      -0.521264       -14.1843
  13   2.0000      -0.403916       -10.9911
  14   2.0000      -0.392092       -10.6694
  15   0.0000       0.123772         3.3680
  16   0.0000       0.328945         8.9510
  17   0.0000       0.515578        14.0296
  18   0.0000       0.598201        16.2779
  19   0.0000       0.661778        18.0079

MULLIKEN ATOMIC CHARGES
-----------------------
   0 C :    0.149646
   1 O :   -0.355425
   2 C :   -0.189678
   3 C :   -0.202557
   4 H :    0.131343
   5 H :    0.149037
   6 H :    0.171233
   7 H :    0.146401
Sum of atomic charges:    0.0000000

LOEWDIN ATOMIC CHARGES
----------------------
   0 C :    0.129032
   1 O :   -0.263421
   2 C :   -0.145110
   3 C :   -0.106050
   4 H :    0.071198
   5 H :    0.098486
   6 H :    0.119774
   7 H :    0.096091

  Mayer bond orders larger than 0.100000
B(  0-C ,  1-O ) :   1.8732 B(  0-C ,  2-C ) :   1.0665 B(  0-C ,  4-H ) :   0.9296
B(  2-C ,  3-C ) :   1.9212 B(  2-C ,  5-H ) :   0.9521 B(  3-C ,  6-H ) :   0.9552
B(  3-C ,  7-H ) :   0.9619

-----------------------------------------------------------------------------
         ABSORPTION SPECTRUM VIA TRANSITION ELECTRIC DIPOLE MOMENTS
-----------------------------------------------------------------------------
State   Energy    Wavelength  fosc         T2        TX        TY        TZ
        (cm-1)      (nm)                 (au**2)    (au)      (au)      (au)
-----------------------------------------------------------------------------
   1   29683.0    336.9   0.000039634   0.00044  -0.00392  -0.00309   0.02036

Dispersion correction           -0.025775301
FINAL SINGLE POINT ENERGY      -189.327817119822

DIPOLE MOMENT
-------------
                                X             Y             Z
Electronic contribution:     -1.73673      -1.78003       0.43472
Nuclear contribution   :      2.21717       2.71784      -0.56072
                        -----------------------------------------
Total Dipole Moment    :      0.48045       0.93782      -0.12600
                        -----------------------------------------
Magnitude (a.u.)       :      1.06123
Magnitude (Debye)      :      2.69743

Rotational constants in cm-1:     0.820489     0.207640     0.166104
Rotational constants in MHz : 24597.636959  6224.880882  4979.670723

                             ****ORCA TERMINATED NORMALLY****
TOTAL RUN TIME: 0 days 0 hours 0 minutes 11 seconds 701 msec
