                         Program Version 5.0.3 -  RELEASE  -
|  1> ! HF-3c
|  2> !TightSCF
|  3> %scf
|  4>  ConvForced true
|  5>  convergence tight
|  6>  MaxIter 500
|  7> end
|  8>
|  9> %tddft
| 10>  nroots 1
| 11> end
| 12>
| 13> # 	23093
| 14> * xyz 0 1
| 15> 		C   -0.632336  -0.450282  -0.023292
| 16> 		O   -0.587966  -1.631309   0.006962
| 17> 		C    0.610606   0.397163   0.013194
| 18> 		C    1.917675  -0.087248  -0.009674
| 19> 		H   -1.436722   0.182762   0.123908
| 20> 		H    0.411878   1.316248  -0.084137
| 21> 		H    1.889709  -1.231465  -0.039327
| 22> 		H    2.788523   0.533477   0.126830
| 23> *
| 24>
| 25>                          ****END OF INPUT****

CARTESIAN COORDINATES (ANGSTROEM)
---------------------------------
  C     -0.632336   -0.450282   -0.023292
  O     -0.587966   -1.631309    0.006962
  C      0.610606    0.397163    0.013194
  C      1.917675   -0.087248   -0.009674
  H     -1.436722    0.182762    0.123908
  H      0.411878    1.316248   -0.084137
  H      1.889709   -1.231465   -0.039327
  H      2.788523    0.533477    0.126830

 Total Charge           Charge          ....    0
 Multiplicity           Mult            ....    1
 Number of Electrons    NEL             ....   30
 Basis Dimension        Dim             ....   24

ORBITAL ENERGIES
----------------

  NO   OCC          E(Eh)            E(eV)
   0   2.0000     -20.381885      -554.6193
   1   2.0000     -11.308280      -307.7139
   2   2.0000     -11.190583      -304.5112
   3   2.0000     -11.171906      -304.0030
   4   2.0000      -1.427846       -38.8537
   5   2.0000      -1.063838       -28.9485
   6   2.0000      -0.905697       -24.6453
   7   2.0000      -0.766920       -20.8690
   8   2.0000      -0.713117       -19.4049
   9   2.0000      -0.618385       -16.8271
  10   2.0000      -0.607281       -16.5250
  11   2.0000      -0.557008       -15.1570
  12   2.0000      -0.535025       -14.5588
  13   2.0000      -0.416144       -11.3238
  14   2.0000      -0.379583       -10.3290
  15   0.0000       0.124575         3.3899
  16   0.0000       0.293472         7.9858
  17   0.0000       0.563114        15.3231
  18   0.0000       0.591605        16.0984
  19   0.0000       0.719342        19.5743

MULLIKEN ATOMIC CHARGES
-----------------------
   0 C :    0.168552
   1 O :   -0.353369
   2 C :   -0.197008
   3 C :   -0.202544
   4 H :    0.140960
   5 H :    0.126019
   6 H :    0.165128
   7 H :    0.152262
Sum of atomic charges:    0.0000000

LOEWDIN ATOMIC CHARGES
----------------------
   0 C :    0.150686
   1 O :   -0.248007
   2 C :   -0.153161
   3 C :   -0.101779
   4 H :    0.069840
   5 H :    0.067320
   6 H :    0.115079
   7 H :    0.100023

  Mayer bond orders larger than 0.100000
B(  0-C ,  1-O ) :   1.9140 B(  0-C ,  2-C ) :   1.0150 B(  0-C ,  4-H ) :   0.9254
B(  2-C ,  3-C ) :   1.9331 B(  2-C ,  5-H ) :   0.9715 B(  3-C ,  6-H ) :   0.9563
B(  3-C ,  7-H ) :   0.9652

-----------------------------------------------------------------------------
         ABSORPTION SPECTRUM VIA TRANSITION ELECTRIC DIPOLE MOMENTS
-----------------------------------------------------------------------------
State   Energy    Wavelength  fosc         T2        TX        TY        TZ
        (cm-1)      (nm)                 (au**2)    (au)      (au)      (au)
-----------------------------------------------------------------------------
   1   33488.0    298.6   0.000243894   0.00240  -0.04894   0.00087  -0.00116

Dispersion correction           -0.025927587
FINAL SINGLE POINT ENERGY      -189.298888858723

DIPOLE MOMENT
-------------
                                X             Y             Z
Electronic contribution:     -1.95600      -1.73864      -0.11298
Nuclear contribution   :      2.27321       2.54028       0.11936
                        -----------------------------------------
Total Dipole Moment    :      0.31720       0.80165       0.00638
                        -----------------------------------------
Magnitude (a.u.)       :      0.86215
Magnitude (Debye)      :      2.19140

Rotational constants in cm-1:     0.785035     0.201342     0.160398
Rotational constants in MHz : 23534.745536  6036.079392  4808.624539

                             ****ORCA TERMINATED NORMALLY****
TOTAL RUN TIME: 0 days 0 hours 0 minutes 12 seconds 810 msec
