                         Program Version 5.0.3 -  RELEASE  -
|  1> ! B3LYP cc-pVDZ
|  2> !TightSCF
|  3> %scf
|  4>  ConvForced true
|  5>  convergence tight
|  6>  MaxIter 500
|  7> end
|  8>
|  9> %tddft
| 10>  nroots 1
| 11> end
| 12>
| 13> # 	30276
| 14> * xyz 0 1
| 15> 		C   -0.627888  -0.466128  -0.085527
| 16> 		O   -0.600565  -1.638693   0.056748
| 17> 		C    0.670400   0.426094   0.081200
| 18> 		C    1.865263  -0.092760  -0.069608
| 19> 		H   -1.578411   0.035392  -0.357833
| 20> 		H    0.623892   1.466141   0.315705
| 21> 		H    2.172305  -1.158069  -0.037440
| 22> 		H    2.567280   0.500892   0.085026
| 23> *
| 24>
| 25>                          ****END OF INPUT****

CARTESIAN COORDINATES (ANGSTROEM)
---------------------------------
  C     -0.627888   -0.466128   -0.085527
  O     -0.600565   -1.638693    0.056748
  C      0.670400    0.426094    0.081200
  C      1.865263   -0.092760   -0.069608
  H     -1.578411    0.035392   -0.357833
  H      0.623892    1.466141    0.315705
  H      2.172305   -1.158069   -0.037440
  H      2.567280    0.500892    0.085026

 Total Charge           Charge          ....    0
 Multiplicity           Mult            ....    1
 Number of Electrons    NEL             ....   30
 Basis Dimension        Dim             ....   76

ORBITAL ENERGIES
----------------

  NO   OCC          E(Eh)            E(eV)
   0   2.0000     -19.143396      -520.9183
   1   2.0000     -10.280474      -279.7459
   2   2.0000     -10.200941      -277.5817
   3   2.0000     -10.186282      -277.1828
   4   2.0000      -1.065827       -29.0026
   5   2.0000      -0.795001       -21.6331
   6   2.0000      -0.645091       -17.5538
   7   2.0000      -0.554341       -15.0844
   8   2.0000      -0.509097       -13.8532
   9   2.0000      -0.446768       -12.1572
  10   2.0000      -0.437962       -11.9175
  11   2.0000      -0.401625       -10.9288
  12   2.0000      -0.385884       -10.5004
  13   2.0000      -0.289056        -7.8656
  14   2.0000      -0.254777        -6.9328
  15   0.0000      -0.053839        -1.4650
  16   0.0000       0.043614         1.1868
  17   0.0000       0.082880         2.2553
  18   0.0000       0.096113         2.6154
  19   0.0000       0.114762         3.1228

MULLIKEN ATOMIC CHARGES
-----------------------
   0 C :    0.177496
   1 O :   -0.156946
   2 C :   -0.138570
   3 C :    0.153496
   4 H :   -0.014551
   5 H :   -0.015585
   6 H :    0.033822
   7 H :   -0.039162
Sum of atomic charges:   -0.0000000

LOEWDIN ATOMIC CHARGES
----------------------
   0 C :   -0.029321
   1 O :    0.029463
   2 C :   -0.061527
   3 C :    0.024311
   4 H :   -0.009226
   5 H :    0.022179
   6 H :    0.041274
   7 H :   -0.017152

  Mayer bond orders larger than 0.100000
B(  0-C ,  1-O ) :   2.2454 B(  0-C ,  2-C ) :   0.9598 B(  0-C ,  4-H ) :   0.9140
B(  2-C ,  3-C ) :   2.0267 B(  2-C ,  5-H ) :   0.9380 B(  3-C ,  6-H ) :   0.9505
B(  3-C ,  7-H ) :   0.9239

-----------------------------------------------------------------------------
         ABSORPTION SPECTRUM VIA TRANSITION ELECTRIC DIPOLE MOMENTS
-----------------------------------------------------------------------------
State   Energy    Wavelength  fosc         T2        TX        TY        TZ
        (cm-1)      (nm)                 (au**2)    (au)      (au)      (au)
-----------------------------------------------------------------------------
   1   30988.4    322.7   0.000008212   0.00009   0.00547   0.00741   0.00155

FINAL SINGLE POINT ENERGY      -191.629851756196

DIPOLE MOMENT
-------------
                                X             Y             Z
Electronic contribution:     -2.12167      -1.76257      -0.01949
Nuclear contribution   :      2.39164       2.57972       0.00425
                        -----------------------------------------
Total Dipole Moment    :      0.26997       0.81715      -0.01523
                        -----------------------------------------
Magnitude (a.u.)       :      0.86073
Magnitude (Debye)      :      2.18779

Rotational constants in cm-1:     0.784867     0.198366     0.159892
Rotational constants in MHz : 23529.710542  5946.854945  4793.449663

                             ****ORCA TERMINATED NORMALLY****
TOTAL RUN TIME: 0 days 0 hours 3 minutes 21 seconds 240 msec
