                         Program Version 5.0.3 -  RELEASE  -
|  1> ! B3LYP cc-pVDZ
|  2> !TightSCF
|  3> %scf
|  4>  ConvForced true
|  5>  convergence tight
|  6>  MaxIter 500
|  7> end
|  8>
|  9> %tddft
| 10>  nroots 1
| 11> end
| 12>
| 13> # 	17034
| 14> * xyz 0 1
| 15> 		C   -1.185851  -0.384837   0.020161
| 16> 		O   -1.975905  -0.751961   0.861318
| 17> 		C    0.028077   0.424198   0.298711
| 18> 		C    1.222534   0.042423  -0.181685
| 19> 		H   -1.402522  -0.535884  -1.140513
| 20> 		H   -0.053644   1.338449   0.896405
| 21> 		H    1.309038  -0.684615  -0.748306
| 22> 		H    1.979163   0.633961  -0.024990
| 23> *
| 24>
| 25>                          ****END OF INPUT****

CARTESIAN COORDINATES (ANGSTROEM)
---------------------------------
  C     -1.185851   -0.384837    0.020161
  O     -1.975905   -0.751961    0.861318
  C      0.028077    0.424198    0.298711
  C      1.222534    0.042423   -0.181685
  H     -1.402522   -0.535884   -1.140513
  H     -0.053644    1.338449    0.896405
  H      1.309038   -0.684615   -0.748306
  H      1.979163    0.633961   -0.024990

 Total Charge           Charge          ....    0
 Multiplicity           Mult            ....    1
 Number of Electrons    NEL             ....   30
 Basis Dimension        Dim             ....   76

ORBITAL ENERGIES
----------------

  NO   OCC          E(Eh)            E(eV)
   0   2.0000     -19.145810      -520.9840
   1   2.0000     -10.285778      -279.8902
   2   2.0000     -10.209015      -277.8014
   3   2.0000     -10.184489      -277.1340
   4   2.0000      -1.050686       -28.5906
   5   2.0000      -0.807581       -21.9754
   6   2.0000      -0.661251       -17.9935
   7   2.0000      -0.568443       -15.4681
   8   2.0000      -0.495845       -13.4926
   9   2.0000      -0.469256       -12.7691
  10   2.0000      -0.437852       -11.9146
  11   2.0000      -0.413377       -11.2486
  12   2.0000      -0.378868       -10.3095
  13   2.0000      -0.289285        -7.8719
  14   2.0000      -0.256870        -6.9898
  15   0.0000      -0.055983        -1.5234
  16   0.0000       0.011055         0.3008
  17   0.0000       0.086941         2.3658
  18   0.0000       0.091626         2.4933
  19   0.0000       0.124260         3.3813

MULLIKEN ATOMIC CHARGES
-----------------------
   0 C :    0.152123
   1 O :   -0.179915
   2 C :   -0.133382
   3 C :    0.235989
   4 H :   -0.002991
   5 H :    0.014882
   6 H :   -0.067325
   7 H :   -0.019381
Sum of atomic charges:    0.0000000

LOEWDIN ATOMIC CHARGES
----------------------
   0 C :   -0.035047
   1 O :    0.007274
   2 C :   -0.035220
   3 C :    0.042027
   4 H :   -0.000273
   5 H :    0.038143
   6 H :   -0.022696
   7 H :    0.005792

  Mayer bond orders larger than 0.100000
B(  0-C ,  1-O ) :   2.2035 B(  0-C ,  2-C ) :   1.0057 B(  0-C ,  4-H ) :   0.8976
B(  2-C ,  3-C ) :   2.0191 B(  2-C ,  5-H ) :   0.9433 B(  3-C ,  6-H ) :   0.9394
B(  3-C ,  7-H ) :   0.9385

-----------------------------------------------------------------------------
         ABSORPTION SPECTRUM VIA TRANSITION ELECTRIC DIPOLE MOMENTS
-----------------------------------------------------------------------------
State   Energy    Wavelength  fosc         T2        TX        TY        TZ
        (cm-1)      (nm)                 (au**2)    (au)      (au)      (au)
-----------------------------------------------------------------------------
   1   30634.6    326.4   0.000520541   0.00559  -0.07470  -0.00198  -0.00312

FINAL SINGLE POINT ENERGY      -191.622722673234

DIPOLE MOMENT
-------------
                                X             Y             Z
Electronic contribution:     -2.83721      -0.97014       1.38027
Nuclear contribution   :      3.63754       1.38582      -1.90961
                        -----------------------------------------
Total Dipole Moment    :      0.80033       0.41568      -0.52934
                        -----------------------------------------
Magnitude (a.u.)       :      1.04571
Magnitude (Debye)      :      2.65798

Rotational constants in cm-1:     1.293416     0.157063     0.149907
Rotational constants in MHz : 38775.644643  4708.638819  4494.109604

                             ****ORCA TERMINATED NORMALLY****
TOTAL RUN TIME: 0 days 0 hours 3 minutes 22 seconds 43 msec
