                         Program Version 5.0.3 -  RELEASE  -
|  1> ! B3LYP cc-pVDZ
|  2> !TightSCF
|  3> %scf
|  4>  ConvForced true
|  5>  convergence tight
|  6>  MaxIter 500
|  7> end
|  8>
|  9> %tddft
| 10>  nroots 1
| 11> end
| 12>
| 13> # 	25151
| 14> * xyz 0 1
| 15> 		C   -0.574065  -0.435790  -0.012106
| 16> 		O   -0.560124  -1.611007   0.006937
| 17> 		C    0.658781   0.414604   0.008867
| 18> 		C    1.789687  -0.134202  -0.007008
| 19> 		H   -1.650890   0.040768  -0.135626
| 20> 		H    0.572795   1.483294   0.207156
| 21> 		H    1.829678  -1.298664   0.141743
| 22> 		H    2.780295   0.432028  -0.203206
| 23> *
| 24>
| 25>                          ****END OF INPUT****

CARTESIAN COORDINATES (ANGSTROEM)
---------------------------------
  C     -0.574065   -0.435790   -0.012106
  O     -0.560124   -1.611007    0.006937
  C      0.658781    0.414604    0.008867
  C      1.789687   -0.134202   -0.007008
  H     -1.650890    0.040768   -0.135626
  H      0.572795    1.483294    0.207156
  H      1.829678   -1.298664    0.141743
  H      2.780295    0.432028   -0.203206

 Total Charge           Charge          ....    0
 Multiplicity           Mult            ....    1
 Number of Electrons    NEL             ....   30
 Basis Dimension        Dim             ....   76

ORBITAL ENERGIES
----------------

  NO   OCC          E(Eh)            E(eV)
   0   2.0000     -19.139419      -520.8101
   1   2.0000     -10.278476      -279.6915
   2   2.0000     -10.210735      -277.8482
   3   2.0000     -10.194935      -277.4183
   4   2.0000      -1.069413       -29.1002
   5   2.0000      -0.808163       -21.9912
   6   2.0000      -0.636135       -17.3101
   7   2.0000      -0.528247       -14.3743
   8   2.0000      -0.512695       -13.9511
   9   2.0000      -0.449801       -12.2397
  10   2.0000      -0.427744       -11.6395
  11   2.0000      -0.412915       -11.2360
  12   2.0000      -0.368473       -10.0267
  13   2.0000      -0.293975        -7.9995
  14   2.0000      -0.254779        -6.9329
  15   0.0000      -0.056479        -1.5369
  16   0.0000       0.051533         1.4023
  17   0.0000       0.076467         2.0808
  18   0.0000       0.085778         2.3341
  19   0.0000       0.112815         3.0698

MULLIKEN ATOMIC CHARGES
-----------------------
   0 C :    0.143827
   1 O :   -0.155570
   2 C :   -0.084378
   3 C :    0.025418
   4 H :   -0.019243
   5 H :   -0.008651
   6 H :    0.052924
   7 H :    0.045673
Sum of atomic charges:   -0.0000000

LOEWDIN ATOMIC CHARGES
----------------------
   0 C :   -0.050942
   1 O :    0.029408
   2 C :   -0.101762
   3 C :    0.001163
   4 H :   -0.004072
   5 H :    0.031564
   6 H :    0.048536
   7 H :    0.046104

  Mayer bond orders larger than 0.100000
B(  0-C ,  1-O ) :   2.2317 B(  0-C ,  2-C ) :   0.9998 B(  0-C ,  4-H ) :   0.9072
B(  2-C ,  3-C ) :   2.0021 B(  2-C ,  5-H ) :   0.9435 B(  3-C ,  6-H ) :   0.9124
B(  3-C ,  7-H ) :   0.9335

-----------------------------------------------------------------------------
         ABSORPTION SPECTRUM VIA TRANSITION ELECTRIC DIPOLE MOMENTS
-----------------------------------------------------------------------------
State   Energy    Wavelength  fosc         T2        TX        TY        TZ
        (cm-1)      (nm)                 (au**2)    (au)      (au)      (au)
-----------------------------------------------------------------------------
   1   30535.6    327.5   0.000301917   0.00326  -0.01476  -0.01351  -0.05343

FINAL SINGLE POINT ENERGY      -191.644129031190

DIPOLE MOMENT
-------------
                                X             Y             Z
Electronic contribution:     -1.79299      -1.60459       0.01565
Nuclear contribution   :      2.15531       2.40589       0.00968
                        -----------------------------------------
Total Dipole Moment    :      0.36231       0.80129       0.02532
                        -----------------------------------------
Magnitude (a.u.)       :      0.87976
Magnitude (Debye)      :      2.23618

Rotational constants in cm-1:     0.797745     0.216076     0.170463
Rotational constants in MHz : 23915.792060  6477.809038  5110.354316

                             ****ORCA TERMINATED NORMALLY****
TOTAL RUN TIME: 0 days 0 hours 3 minutes 11 seconds 554 msec
