                         Program Version 5.0.3 -  RELEASE  -
|  1> ! HF-3c
|  2> !TightSCF
|  3> %scf
|  4>  ConvForced true
|  5>  convergence tight
|  6>  MaxIter 500
|  7> end
|  8>
|  9> %tddft
| 10>  nroots 1
| 11> end
| 12>
| 13> # 	9743
| 14> * xyz 0 1
| 15> 		C   -1.197798  -0.307549  -0.140174
| 16> 		O   -1.332426  -1.475034  -0.442548
| 17> 		C   -0.020066   0.483337  -0.229312
| 18> 		C    1.241692   0.001460   0.006406
| 19> 		H   -2.198351   0.134390   0.635795
| 20> 		H   -0.098215   1.601824  -0.397976
| 21> 		H    1.435063  -1.088871   0.308441
| 22> 		H    2.166751   0.607541   0.222364
| 23> *
| 24>
| 25>                          ****END OF INPUT****

CARTESIAN COORDINATES (ANGSTROEM)
---------------------------------
  C     -1.197798   -0.307549   -0.140174
  O     -1.332426   -1.475034   -0.442548
  C     -0.020066    0.483337   -0.229312
  C      1.241692    0.001460    0.006406
  H     -2.198351    0.134390    0.635795
  H     -0.098215    1.601824   -0.397976
  H      1.435063   -1.088871    0.308441
  H      2.166751    0.607541    0.222364

 Total Charge           Charge          ....    0
 Multiplicity           Mult            ....    1
 Number of Electrons    NEL             ....   30
 Basis Dimension        Dim             ....   24

ORBITAL ENERGIES
----------------

  NO   OCC          E(Eh)            E(eV)
   0   2.0000     -20.351126      -553.7823
   1   2.0000     -11.288640      -307.1795
   2   2.0000     -11.192299      -304.5579
   3   2.0000     -11.190475      -304.5083
   4   2.0000      -1.389692       -37.8154
   5   2.0000      -1.067545       -29.0494
   6   2.0000      -0.876949       -23.8630
   7   2.0000      -0.718129       -19.5413
   8   2.0000      -0.672491       -18.2994
   9   2.0000      -0.610587       -16.6149
  10   2.0000      -0.585705       -15.9378
  11   2.0000      -0.526900       -14.3377
  12   2.0000      -0.496559       -13.5121
  13   2.0000      -0.393850       -10.7172
  14   2.0000      -0.377018       -10.2592
  15   0.0000       0.139167         3.7869
  16   0.0000       0.262561         7.1446
  17   0.0000       0.457312        12.4441
  18   0.0000       0.561625        15.2826
  19   0.0000       0.624162        16.9843

MULLIKEN ATOMIC CHARGES
-----------------------
   0 C :    0.178051
   1 O :   -0.361544
   2 C :   -0.187391
   3 C :   -0.194132
   4 H :    0.126098
   5 H :    0.148884
   6 H :    0.145963
   7 H :    0.144071
Sum of atomic charges:   -0.0000000

LOEWDIN ATOMIC CHARGES
----------------------
   0 C :    0.141927
   1 O :   -0.268728
   2 C :   -0.145506
   3 C :   -0.104641
   4 H :    0.082235
   5 H :    0.100434
   6 H :    0.098129
   7 H :    0.096151

  Mayer bond orders larger than 0.100000
B(  0-C ,  1-O ) :   1.9033 B(  0-C ,  2-C ) :   1.0531 B(  0-C ,  4-H ) :   0.8909
B(  2-C ,  3-C ) :   1.9250 B(  2-C ,  5-H ) :   0.9508 B(  3-C ,  6-H ) :   0.9623
B(  3-C ,  7-H ) :   0.9642

-----------------------------------------------------------------------------
         ABSORPTION SPECTRUM VIA TRANSITION ELECTRIC DIPOLE MOMENTS
-----------------------------------------------------------------------------
State   Energy    Wavelength  fosc         T2        TX        TY        TZ
        (cm-1)      (nm)                 (au**2)    (au)      (au)      (au)
-----------------------------------------------------------------------------
   1   32056.1    312.0   0.000178217   0.00183  -0.02877  -0.00584  -0.03112

Dispersion correction           -0.024902019
FINAL SINGLE POINT ENERGY      -189.294544671355

DIPOLE MOMENT
-------------
                                X             Y             Z
Electronic contribution:     -2.04511      -1.57590      -0.99747
Nuclear contribution   :      2.52973       2.51328       1.43135
                        -----------------------------------------
Total Dipole Moment    :      0.48463       0.93737       0.43388
                        -----------------------------------------
Magnitude (a.u.)       :      1.14096
Magnitude (Debye)      :      2.90008

Rotational constants in cm-1:     0.785352     0.192713     0.159721
Rotational constants in MHz : 23544.246736  5777.395878  4788.325805

                             ****ORCA TERMINATED NORMALLY****
TOTAL RUN TIME: 0 days 0 hours 0 minutes 12 seconds 462 msec
