                         Program Version 5.0.3 -  RELEASE  -
|  1> ! HF-3c
|  2> !TightSCF
|  3> %scf
|  4>  ConvForced true
|  5>  convergence tight
|  6>  MaxIter 500
|  7> end
|  8>
|  9> %tddft
| 10>  nroots 1
| 11> end
| 12>
| 13> # 	27330
| 14> * xyz 0 1
| 15> 		C   -0.543886  -0.422718   0.016387
| 16> 		O   -0.639520  -1.680592  -0.013635
| 17> 		C    0.645912   0.419347   0.011461
| 18> 		C    1.879310  -0.070794   0.006467
| 19> 		H   -1.626955   0.004116  -0.017912
| 20> 		H    0.464995   1.412801  -0.124450
| 21> 		H    2.046606  -1.195334   0.060647
| 22> 		H    2.639366   0.570282  -0.123589
| 23> *
| 24>
| 25>                          ****END OF INPUT****

CARTESIAN COORDINATES (ANGSTROEM)
---------------------------------
  C     -0.543886   -0.422718    0.016387
  O     -0.639520   -1.680592   -0.013635
  C      0.645912    0.419347    0.011461
  C      1.879310   -0.070794    0.006467
  H     -1.626955    0.004116   -0.017912
  H      0.464995    1.412801   -0.124450
  H      2.046606   -1.195334    0.060647
  H      2.639366    0.570282   -0.123589

 Total Charge           Charge          ....    0
 Multiplicity           Mult            ....    1
 Number of Electrons    NEL             ....   30
 Basis Dimension        Dim             ....   24

ORBITAL ENERGIES
----------------

  NO   OCC          E(Eh)            E(eV)
   0   2.0000     -20.339251      -553.4592
   1   2.0000     -11.276152      -306.8397
   2   2.0000     -11.206018      -304.9313
   3   2.0000     -11.202702      -304.8410
   4   2.0000      -1.358245       -36.9597
   5   2.0000      -1.096886       -29.8478
   6   2.0000      -0.899824       -24.4855
   7   2.0000      -0.746737       -20.3197
   8   2.0000      -0.711802       -19.3691
   9   2.0000      -0.619271       -16.8512
  10   2.0000      -0.587522       -15.9873
  11   2.0000      -0.535542       -14.5728
  12   2.0000      -0.520653       -14.1677
  13   2.0000      -0.406349       -11.0573
  14   2.0000      -0.395975       -10.7750
  15   0.0000       0.118754         3.2315
  16   0.0000       0.305390         8.3101
  17   0.0000       0.525094        14.2885
  18   0.0000       0.596340        16.2272
  19   0.0000       0.651156        17.7189

MULLIKEN ATOMIC CHARGES
-----------------------
   0 C :    0.147557
   1 O :   -0.349969
   2 C :   -0.191930
   3 C :   -0.212970
   4 H :    0.139623
   5 H :    0.148319
   6 H :    0.171441
   7 H :    0.147930
Sum of atomic charges:   -0.0000000

LOEWDIN ATOMIC CHARGES
----------------------
   0 C :    0.136117
   1 O :   -0.272274
   2 C :   -0.136610
   3 C :   -0.108089
   4 H :    0.082311
   5 H :    0.089614
   6 H :    0.119229
   7 H :    0.089703

  Mayer bond orders larger than 0.100000
B(  0-C ,  1-O ) :   1.8873 B(  0-C ,  2-C ) :   1.0481 B(  0-C ,  4-H ) :   0.9342
B(  2-C ,  3-C ) :   1.9315 B(  2-C ,  5-H ) :   0.9586 B(  3-C ,  6-H ) :   0.9554
B(  3-C ,  7-H ) :   0.9664

-----------------------------------------------------------------------------
         ABSORPTION SPECTRUM VIA TRANSITION ELECTRIC DIPOLE MOMENTS
-----------------------------------------------------------------------------
State   Energy    Wavelength  fosc         T2        TX        TY        TZ
        (cm-1)      (nm)                 (au**2)    (au)      (au)      (au)
-----------------------------------------------------------------------------
   1   28387.4    352.3   0.000036143   0.00042   0.00581   0.00095  -0.01961

Dispersion correction           -0.025529872
FINAL SINGLE POINT ENERGY      -189.339823776012

DIPOLE MOMENT
-------------
                                X             Y             Z
Electronic contribution:     -1.74120      -1.62314       0.15636
Nuclear contribution   :      2.14634       2.53113      -0.19194
                        -----------------------------------------
Total Dipole Moment    :      0.40514       0.90799      -0.03559
                        -----------------------------------------
Magnitude (a.u.)       :      0.99491
Magnitude (Debye)      :      2.52887

Rotational constants in cm-1:     0.799153     0.196647     0.157942
Rotational constants in MHz : 23958.008997  5895.326672  4734.977125

                             ****ORCA TERMINATED NORMALLY****
TOTAL RUN TIME: 0 days 0 hours 0 minutes 11 seconds 242 msec
