                         Program Version 5.0.3 -  RELEASE  -
|  1> ! HF-3c
|  2> !TightSCF
|  3> %scf
|  4>  ConvForced true
|  5>  convergence tight
|  6>  MaxIter 500
|  7> end
|  8>
|  9> %tddft
| 10>  nroots 1
| 11> end
| 12>
| 13> # 	8946
| 14> * xyz 0 1
| 15> 		C   -1.173493  -0.281717  -0.083536
| 16> 		O   -1.326756  -1.287000  -0.675801
| 17> 		C    0.007263   0.531767  -0.210035
| 18> 		C    1.211798   0.013959   0.158790
| 19> 		H   -2.042204  -0.071635   0.787112
| 20> 		H   -0.129050   1.641253  -0.432351
| 21> 		H    1.216878  -1.181457   0.385076
| 22> 		H    2.261306   0.605534   0.036046
| 23> *
| 24>
| 25>                          ****END OF INPUT****

CARTESIAN COORDINATES (ANGSTROEM)
---------------------------------
  C     -1.173493   -0.281717   -0.083536
  O     -1.326756   -1.287000   -0.675801
  C      0.007263    0.531767   -0.210035
  C      1.211798    0.013959    0.158790
  H     -2.042204   -0.071635    0.787112
  H     -0.129050    1.641253   -0.432351
  H      1.216878   -1.181457    0.385076
  H      2.261306    0.605534    0.036046

 Total Charge           Charge          ....    0
 Multiplicity           Mult            ....    1
 Number of Electrons    NEL             ....   30
 Basis Dimension        Dim             ....   24

ORBITAL ENERGIES
----------------

  NO   OCC          E(Eh)            E(eV)
   0   2.0000     -20.363968      -554.1317
   1   2.0000     -11.295272      -307.3600
   2   2.0000     -11.179162      -304.2005
   3   2.0000     -11.177417      -304.1530
   4   2.0000      -1.422908       -38.7193
   5   2.0000      -1.060879       -28.8680
   6   2.0000      -0.854959       -23.2646
   7   2.0000      -0.717546       -19.5254
   8   2.0000      -0.681099       -18.5336
   9   2.0000      -0.605686       -16.4816
  10   2.0000      -0.591660       -16.0999
  11   2.0000      -0.517331       -14.0773
  12   2.0000      -0.500522       -13.6199
  13   2.0000      -0.396467       -10.7884
  14   2.0000      -0.381467       -10.3803
  15   0.0000       0.172242         4.6869
  16   0.0000       0.251687         6.8487
  17   0.0000       0.496791        13.5184
  18   0.0000       0.514001        13.9867
  19   0.0000       0.563728        15.3398

MULLIKEN ATOMIC CHARGES
-----------------------
   0 C :    0.179074
   1 O :   -0.362848
   2 C :   -0.186956
   3 C :   -0.196354
   4 H :    0.129782
   5 H :    0.145886
   6 H :    0.145025
   7 H :    0.146392
Sum of atomic charges:   -0.0000000

LOEWDIN ATOMIC CHARGES
----------------------
   0 C :    0.142369
   1 O :   -0.257779
   2 C :   -0.148648
   3 C :   -0.121402
   4 H :    0.077506
   5 H :    0.098980
   6 H :    0.103883
   7 H :    0.105092

  Mayer bond orders larger than 0.100000
B(  0-C ,  1-O ) :   1.9250 B(  0-C ,  2-C ) :   1.0176 B(  0-C ,  4-H ) :   0.8987
B(  2-C ,  3-C ) :   1.9612 B(  2-C ,  5-H ) :   0.9490 B(  3-C ,  6-H ) :   0.9567
B(  3-C ,  7-H ) :   0.9578

-----------------------------------------------------------------------------
         ABSORPTION SPECTRUM VIA TRANSITION ELECTRIC DIPOLE MOMENTS
-----------------------------------------------------------------------------
State   Energy    Wavelength  fosc         T2        TX        TY        TZ
        (cm-1)      (nm)                 (au**2)    (au)      (au)      (au)
-----------------------------------------------------------------------------
   1   35687.0    280.2   0.000050764   0.00047  -0.00860  -0.00385   0.01948

Dispersion correction           -0.025094365
FINAL SINGLE POINT ENERGY      -189.275922987626

DIPOLE MOMENT
-------------
                                X             Y             Z
Electronic contribution:     -2.07226      -1.26536      -0.96960
Nuclear contribution   :      2.50764       2.01652       1.50073
                        -----------------------------------------
Total Dipole Moment    :      0.43538       0.75116       0.53112
                        -----------------------------------------
Magnitude (a.u.)       :      1.01779
Magnitude (Debye)      :      2.58701

Rotational constants in cm-1:     0.807221     0.194762     0.168203
Rotational constants in MHz : 24199.877884  5838.827629  5042.606180

                             ****ORCA TERMINATED NORMALLY****
TOTAL RUN TIME: 0 days 0 hours 0 minutes 12 seconds 946 msec
