                         Program Version 5.0.3 -  RELEASE  -
|  1> ! HF-3c
|  2> !TightSCF
|  3> %scf
|  4>  ConvForced true
|  5>  convergence tight
|  6>  MaxIter 500
|  7> end
|  8>
|  9> %tddft
| 10>  nroots 1
| 11> end
| 12>
| 13> # 	18736
| 14> * xyz 0 1
| 15> 		C   -1.193425  -0.346721  -0.109384
| 16> 		O   -1.943761  -0.600605  -1.015112
| 17> 		C    0.059150   0.427832  -0.338639
| 18> 		C    1.244871   0.026616   0.271267
| 19> 		H   -1.398433  -0.697775   1.010427
| 20> 		H    0.007061   1.306439  -1.008672
| 21> 		H    1.114428  -0.766848   1.063037
| 22> 		H    2.098076   0.588454   0.191064
| 23> *
| 24>
| 25>                          ****END OF INPUT****

CARTESIAN COORDINATES (ANGSTROEM)
---------------------------------
  C     -1.193425   -0.346721   -0.109384
  O     -1.943761   -0.600605   -1.015112
  C      0.059150    0.427832   -0.338639
  C      1.244871    0.026616    0.271267
  H     -1.398433   -0.697775    1.010427
  H      0.007061    1.306439   -1.008672
  H      1.114428   -0.766848    1.063037
  H      2.098076    0.588454    0.191064

 Total Charge           Charge          ....    0
 Multiplicity           Mult            ....    1
 Number of Electrons    NEL             ....   30
 Basis Dimension        Dim             ....   24

ORBITAL ENERGIES
----------------

  NO   OCC          E(Eh)            E(eV)
   0   2.0000     -20.371288      -554.3309
   1   2.0000     -11.298591      -307.4503
   2   2.0000     -11.186870      -304.4102
   3   2.0000     -11.182067      -304.2795
   4   2.0000      -1.409107       -38.3437
   5   2.0000      -1.063289       -28.9336
   6   2.0000      -0.872513       -23.7423
   7   2.0000      -0.760562       -20.6959
   8   2.0000      -0.659143       -17.9362
   9   2.0000      -0.647500       -17.6194
  10   2.0000      -0.585420       -15.9301
  11   2.0000      -0.553481       -15.0610
  12   2.0000      -0.515154       -14.0181
  13   2.0000      -0.408180       -11.1072
  14   2.0000      -0.382560       -10.4100
  15   0.0000       0.139349         3.7919
  16   0.0000       0.263408         7.1677
  17   0.0000       0.528381        14.3780
  18   0.0000       0.587868        15.9967
  19   0.0000       0.656175        17.8554

MULLIKEN ATOMIC CHARGES
-----------------------
   0 C :    0.175136
   1 O :   -0.352647
   2 C :   -0.153189
   3 C :   -0.241850
   4 H :    0.135982
   5 H :    0.153034
   6 H :    0.140730
   7 H :    0.142805
Sum of atomic charges:    0.0000000

LOEWDIN ATOMIC CHARGES
----------------------
   0 C :    0.147628
   1 O :   -0.254075
   2 C :   -0.110684
   3 C :   -0.146742
   4 H :    0.079570
   5 H :    0.100727
   6 H :    0.095415
   7 H :    0.088161

  Mayer bond orders larger than 0.100000
B(  0-C ,  1-O ) :   1.9264 B(  0-C ,  2-C ) :   1.0099 B(  0-C ,  4-H ) :   0.9097
B(  2-C ,  3-C ) :   1.9589 B(  2-C ,  5-H ) :   0.9554 B(  3-C ,  6-H ) :   0.9654
B(  3-C ,  7-H ) :   0.9685

-----------------------------------------------------------------------------
         ABSORPTION SPECTRUM VIA TRANSITION ELECTRIC DIPOLE MOMENTS
-----------------------------------------------------------------------------
State   Energy    Wavelength  fosc         T2        TX        TY        TZ
        (cm-1)      (nm)                 (au**2)    (au)      (au)      (au)
-----------------------------------------------------------------------------
   1   33962.1    294.4   0.000110980   0.00108  -0.02893   0.00287  -0.01519

Dispersion correction           -0.025095414
FINAL SINGLE POINT ENERGY      -189.319391269053

DIPOLE MOMENT
-------------
                                X             Y             Z
Electronic contribution:     -2.85064      -0.66503      -1.53334
Nuclear contribution   :      3.55697       0.92442       2.31218
                        -----------------------------------------
Total Dipole Moment    :      0.70633       0.25939       0.77884
                        -----------------------------------------
Magnitude (a.u.)       :      1.08295
Magnitude (Debye)      :      2.75263

Rotational constants in cm-1:     1.253199     0.156379     0.146079
Rotational constants in MHz : 37569.969801  4688.111611  4379.333762

                             ****ORCA TERMINATED NORMALLY****
TOTAL RUN TIME: 0 days 0 hours 0 minutes 11 seconds 786 msec
