                         Program Version 5.0.3 -  RELEASE  -
|  1> ! B3LYP cc-pVDZ
|  2> !TightSCF
|  3> %scf
|  4>  ConvForced true
|  5>  convergence tight
|  6>  MaxIter 500
|  7> end
|  8>
|  9> %tddft
| 10>  nroots 1
| 11> end
| 12>
| 13> # 	7962
| 14> * xyz 0 1
| 15> 		C   -1.237019  -0.340939   0.033031
| 16> 		O   -1.276760  -1.508328   0.244602
| 17> 		C    0.015207   0.482993   0.189605
| 18> 		C    1.278599  -0.056432  -0.071094
| 19> 		H   -2.055367   0.254615  -0.459389
| 20> 		H   -0.137556   1.550595   0.151243
| 21> 		H    1.395731  -1.063517  -0.158358
| 22> 		H    1.968893   0.717283   0.097555
| 23> *
| 24>
| 25>                          ****END OF INPUT****

CARTESIAN COORDINATES (ANGSTROEM)
---------------------------------
  C     -1.237019   -0.340939    0.033031
  O     -1.276760   -1.508328    0.244602
  C      0.015207    0.482993    0.189605
  C      1.278599   -0.056432   -0.071094
  H     -2.055367    0.254615   -0.459389
  H     -0.137556    1.550595    0.151243
  H      1.395731   -1.063517   -0.158358
  H      1.968893    0.717283    0.097555

 Total Charge           Charge          ....    0
 Multiplicity           Mult            ....    1
 Number of Electrons    NEL             ....   30
 Basis Dimension        Dim             ....   76

ORBITAL ENERGIES
----------------

  NO   OCC          E(Eh)            E(eV)
   0   2.0000     -19.141333      -520.8621
   1   2.0000     -10.275871      -279.6207
   2   2.0000     -10.209074      -277.8030
   3   2.0000     -10.206995      -277.7465
   4   2.0000      -1.060929       -28.8693
   5   2.0000      -0.786341       -21.3974
   6   2.0000      -0.658671       -17.9234
   7   2.0000      -0.544566       -14.8184
   8   2.0000      -0.509983       -13.8773
   9   2.0000      -0.454395       -12.3647
  10   2.0000      -0.422365       -11.4931
  11   2.0000      -0.404345       -11.0028
  12   2.0000      -0.390742       -10.6326
  13   2.0000      -0.281259        -7.6535
  14   2.0000      -0.254475        -6.9246
  15   0.0000      -0.066980        -1.8226
  16   0.0000       0.036270         0.9870
  17   0.0000       0.072953         1.9852
  18   0.0000       0.094900         2.5824
  19   0.0000       0.125616         3.4182

MULLIKEN ATOMIC CHARGES
-----------------------
   0 C :    0.170076
   1 O :   -0.170281
   2 C :   -0.133690
   3 C :    0.123442
   4 H :   -0.019540
   5 H :   -0.005431
   6 H :    0.010603
   7 H :    0.024821
Sum of atomic charges:    0.0000000

LOEWDIN ATOMIC CHARGES
----------------------
   0 C :   -0.052394
   1 O :    0.021349
   2 C :   -0.061220
   3 C :    0.038144
   4 H :   -0.007089
   5 H :    0.021417
   6 H :    0.010974
   7 H :    0.028818

  Mayer bond orders larger than 0.100000
B(  0-C ,  1-O ) :   2.2178 B(  0-C ,  2-C ) :   1.0377 B(  0-C ,  4-H ) :   0.9032
B(  2-C ,  3-C ) :   1.9608 B(  2-C ,  5-H ) :   0.9378 B(  3-C ,  6-H ) :   0.9480
B(  3-C ,  7-H ) :   0.9452

-----------------------------------------------------------------------------
         ABSORPTION SPECTRUM VIA TRANSITION ELECTRIC DIPOLE MOMENTS
-----------------------------------------------------------------------------
State   Energy    Wavelength  fosc         T2        TX        TY        TZ
        (cm-1)      (nm)                 (au**2)    (au)      (au)      (au)
-----------------------------------------------------------------------------
   1   28745.7    347.9   0.000783961   0.00898   0.08701   0.02411  -0.02875

FINAL SINGLE POINT ENERGY      -191.656364847511

DIPOLE MOMENT
-------------
                                X             Y             Z
Electronic contribution:     -1.95492      -1.96775       0.52459
Nuclear contribution   :      2.32786       2.80018      -0.70282
                        -----------------------------------------
Total Dipole Moment    :      0.37295       0.83244      -0.17824
                        -----------------------------------------
Magnitude (a.u.)       :      0.92941
Magnitude (Debye)      :      2.36238

Rotational constants in cm-1:     0.772146     0.198585     0.160869
Rotational constants in MHz : 23148.357742  5953.420471  4822.722546

                             ****ORCA TERMINATED NORMALLY****
TOTAL RUN TIME: 0 days 0 hours 3 minutes 22 seconds 562 msec
