                         Program Version 5.0.3 -  RELEASE  -
|  1> ! HF-3c
|  2> !TightSCF
|  3> %scf
|  4>  ConvForced true
|  5>  convergence tight
|  6>  MaxIter 500
|  7> end
|  8>
|  9> %tddft
| 10>  nroots 1
| 11> end
| 12>
| 13> # 	2217
| 14> * xyz 0 1
| 15> 		C   -1.209578  -0.365506   0.121056
| 16> 		O   -2.160423  -0.508741   0.782116
| 17> 		C    0.000017   0.454589   0.277700
| 18> 		C    1.180924   0.185952  -0.311499
| 19> 		H   -1.054659  -0.935991  -0.810519
| 20> 		H   -0.124121   1.302898   1.049736
| 21> 		H    1.161883  -0.800615  -1.086239
| 22> 		H    2.211196   0.676475   0.006189
| 23> *
| 24>
| 25>                          ****END OF INPUT****

CARTESIAN COORDINATES (ANGSTROEM)
---------------------------------
  C     -1.209578   -0.365506    0.121056
  O     -2.160423   -0.508741    0.782116
  C      0.000017    0.454589    0.277700
  C      1.180924    0.185952   -0.311499
  H     -1.054659   -0.935991   -0.810519
  H     -0.124121    1.302898    1.049736
  H      1.161883   -0.800615   -1.086239
  H      2.211196    0.676475    0.006189

 Total Charge           Charge          ....    0
 Multiplicity           Mult            ....    1
 Number of Electrons    NEL             ....   30
 Basis Dimension        Dim             ....   24

ORBITAL ENERGIES
----------------

  NO   OCC          E(Eh)            E(eV)
   0   2.0000     -20.382138      -554.6262
   1   2.0000     -11.307188      -307.6842
   2   2.0000     -11.191209      -304.5283
   3   2.0000     -11.178691      -304.1877
   4   2.0000      -1.433309       -39.0023
   5   2.0000      -1.071180       -29.1483
   6   2.0000      -0.868546       -23.6343
   7   2.0000      -0.759239       -20.6600
   8   2.0000      -0.647178       -17.6106
   9   2.0000      -0.637821       -17.3560
  10   2.0000      -0.582003       -15.8371
  11   2.0000      -0.557000       -15.1567
  12   2.0000      -0.506727       -13.7887
  13   2.0000      -0.403269       -10.9735
  14   2.0000      -0.387169       -10.5354
  15   0.0000       0.140411         3.8208
  16   0.0000       0.310921         8.4606
  17   0.0000       0.467907        12.7324
  18   0.0000       0.514281        13.9943
  19   0.0000       0.621775        16.9194

MULLIKEN ATOMIC CHARGES
-----------------------
   0 C :    0.185315
   1 O :   -0.360956
   2 C :   -0.181009
   3 C :   -0.196607
   4 H :    0.115448
   5 H :    0.144155
   6 H :    0.138648
   7 H :    0.155006
Sum of atomic charges:    0.0000000

LOEWDIN ATOMIC CHARGES
----------------------
   0 C :    0.155095
   1 O :   -0.250103
   2 C :   -0.147896
   3 C :   -0.118047
   4 H :    0.052438
   5 H :    0.096573
   6 H :    0.101380
   7 H :    0.110560

  Mayer bond orders larger than 0.100000
B(  0-C ,  1-O ) :   1.9175 B(  0-C ,  2-C ) :   1.0164 B(  0-C ,  4-H ) :   0.9130
B(  2-C ,  3-C ) :   1.9478 B(  2-C ,  5-H ) :   0.9512 B(  3-C ,  6-H ) :   0.9526
B(  3-C ,  7-H ) :   0.9570

-----------------------------------------------------------------------------
         ABSORPTION SPECTRUM VIA TRANSITION ELECTRIC DIPOLE MOMENTS
-----------------------------------------------------------------------------
State   Energy    Wavelength  fosc         T2        TX        TY        TZ
        (cm-1)      (nm)                 (au**2)    (au)      (au)      (au)
-----------------------------------------------------------------------------
   1   35274.9    283.5   0.000115240   0.00108   0.02753   0.00383  -0.01740

Dispersion correction           -0.025287111
FINAL SINGLE POINT ENERGY      -189.294157375543

DIPOLE MOMENT
-------------
                                X             Y             Z
Electronic contribution:     -3.08441      -0.39169       1.10416
Nuclear contribution   :      4.22390       0.52876      -1.63163
                        -----------------------------------------
Total Dipole Moment    :      1.13950       0.13707      -0.52747
                        -----------------------------------------
Magnitude (a.u.)       :      1.26312
Magnitude (Debye)      :      3.21059

Rotational constants in cm-1:     1.556217     0.151303     0.139707
Rotational constants in MHz : 46654.202298  4535.940388  4188.299920

                             ****ORCA TERMINATED NORMALLY****
TOTAL RUN TIME: 0 days 0 hours 0 minutes 11 seconds 659 msec
