                         Program Version 5.0.3 -  RELEASE  -
|  1> ! HF-3c
|  2> !TightSCF
|  3> %scf
|  4>  ConvForced true
|  5>  convergence tight
|  6>  MaxIter 500
|  7> end
|  8>
|  9> %tddft
| 10>  nroots 1
| 11> end
| 12>
| 13> # 	14365
| 14> * xyz 0 1
| 15> 		C   -1.162209  -0.395751  -0.036339
| 16> 		O   -1.389370  -1.494857   0.407027
| 17> 		C   -0.022291   0.490248   0.106463
| 18> 		C    1.216164  -0.012595  -0.114796
| 19> 		H   -2.085962   0.230686  -0.419442
| 20> 		H   -0.162544   1.497926   0.409711
| 21> 		H    1.469913  -1.004166  -0.348597
| 22> 		H    2.152583   0.673613  -0.025988
| 23> *
| 24>
| 25>                          ****END OF INPUT****

CARTESIAN COORDINATES (ANGSTROEM)
---------------------------------
  C     -1.162209   -0.395751   -0.036339
  O     -1.389370   -1.494857    0.407027
  C     -0.022291    0.490248    0.106463
  C      1.216164   -0.012595   -0.114796
  H     -2.085962    0.230686   -0.419442
  H     -0.162544    1.497926    0.409711
  H      1.469913   -1.004166   -0.348597
  H      2.152583    0.673613   -0.025988

 Total Charge           Charge          ....    0
 Multiplicity           Mult            ....    1
 Number of Electrons    NEL             ....   30
 Basis Dimension        Dim             ....   24

ORBITAL ENERGIES
----------------

  NO   OCC          E(Eh)            E(eV)
   0   2.0000     -20.368179      -554.2463
   1   2.0000     -11.294407      -307.3364
   2   2.0000     -11.193999      -304.6042
   3   2.0000     -11.192494      -304.5632
   4   2.0000      -1.401265       -38.1304
   5   2.0000      -1.081613       -29.4322
   6   2.0000      -0.889128       -24.1944
   7   2.0000      -0.749020       -20.3819
   8   2.0000      -0.693554       -18.8726
   9   2.0000      -0.620131       -16.8746
  10   2.0000      -0.597912       -16.2700
  11   2.0000      -0.543437       -14.7877
  12   2.0000      -0.522368       -14.2143
  13   2.0000      -0.402894       -10.9633
  14   2.0000      -0.390304       -10.6207
  15   0.0000       0.140882         3.8336
  16   0.0000       0.270981         7.3738
  17   0.0000       0.536359        14.5951
  18   0.0000       0.624115        16.9830
  19   0.0000       0.636328        17.3154

MULLIKEN ATOMIC CHARGES
-----------------------
   0 C :    0.179125
   1 O :   -0.351527
   2 C :   -0.189746
   3 C :   -0.202750
   4 H :    0.120490
   5 H :    0.154221
   6 H :    0.148577
   7 H :    0.141611
Sum of atomic charges:    0.0000000

LOEWDIN ATOMIC CHARGES
----------------------
   0 C :    0.153900
   1 O :   -0.255575
   2 C :   -0.143923
   3 C :   -0.107337
   4 H :    0.064221
   5 H :    0.099235
   6 H :    0.092785
   7 H :    0.096693

  Mayer bond orders larger than 0.100000
B(  0-C ,  1-O ) :   1.9182 B(  0-C ,  2-C ) :   1.0278 B(  0-C ,  4-H ) :   0.9115
B(  2-C ,  3-C ) :   1.9452 B(  2-C ,  5-H ) :   0.9544 B(  3-C ,  6-H ) :   0.9661
B(  3-C ,  7-H ) :   0.9639

-----------------------------------------------------------------------------
         ABSORPTION SPECTRUM VIA TRANSITION ELECTRIC DIPOLE MOMENTS
-----------------------------------------------------------------------------
State   Energy    Wavelength  fosc         T2        TX        TY        TZ
        (cm-1)      (nm)                 (au**2)    (au)      (au)      (au)
-----------------------------------------------------------------------------
   1   32675.6    306.0   0.001082320   0.01090  -0.10404   0.00854  -0.00287

Dispersion correction           -0.025246901
FINAL SINGLE POINT ENERGY      -189.322512256963

DIPOLE MOMENT
-------------
                                X             Y             Z
Electronic contribution:     -2.11454      -1.81528       0.41389
Nuclear contribution   :      2.64362       2.73588      -0.73005
                        -----------------------------------------
Total Dipole Moment    :      0.52908       0.92060      -0.31617
                        -----------------------------------------
Magnitude (a.u.)       :      1.10788
Magnitude (Debye)      :      2.81601

Rotational constants in cm-1:     0.839202     0.189062     0.159138
Rotational constants in MHz : 25158.635992  5667.948988  4770.848506

                             ****ORCA TERMINATED NORMALLY****
TOTAL RUN TIME: 0 days 0 hours 0 minutes 10 seconds 885 msec
