                         Program Version 5.0.3 -  RELEASE  -
|  1> ! HF-3c
|  2> !TightSCF
|  3> %scf
|  4>  ConvForced true
|  5>  convergence tight
|  6>  MaxIter 500
|  7> end
|  8>
|  9> %tddft
| 10>  nroots 1
| 11> end
| 12>
| 13> # 	29897
| 14> * xyz 0 1
| 15> 		C   -0.508875  -0.444020   0.007356
| 16> 		O   -0.656563  -1.665536   0.001270
| 17> 		C    0.649124   0.398379   0.000599
| 18> 		C    1.842964  -0.060299   0.030587
| 19> 		H   -1.464994   0.145650  -0.170190
| 20> 		H    0.466581   1.346641   0.058338
| 21> 		H    2.014440  -0.998147  -0.138582
| 22> 		H    2.730968   0.441732  -0.234620
| 23> *
| 24>
| 25>                          ****END OF INPUT****

CARTESIAN COORDINATES (ANGSTROEM)
---------------------------------
  C     -0.508875   -0.444020    0.007356
  O     -0.656563   -1.665536    0.001270
  C      0.649124    0.398379    0.000599
  C      1.842964   -0.060299    0.030587
  H     -1.464994    0.145650   -0.170190
  H      0.466581    1.346641    0.058338
  H      2.014440   -0.998147   -0.138582
  H      2.730968    0.441732   -0.234620

 Total Charge           Charge          ....    0
 Multiplicity           Mult            ....    1
 Number of Electrons    NEL             ....   30
 Basis Dimension        Dim             ....   24

ORBITAL ENERGIES
----------------

  NO   OCC          E(Eh)            E(eV)
   0   2.0000     -20.365273      -554.1672
   1   2.0000     -11.293898      -307.3226
   2   2.0000     -11.218132      -305.2609
   3   2.0000     -11.214095      -305.1510
   4   2.0000      -1.388570       -37.7849
   5   2.0000      -1.130171       -30.7535
   6   2.0000      -0.929455       -25.2918
   7   2.0000      -0.783061       -21.3082
   8   2.0000      -0.725811       -19.7503
   9   2.0000      -0.650401       -17.6983
  10   2.0000      -0.600284       -16.3346
  11   2.0000      -0.556445       -15.1416
  12   2.0000      -0.543623       -14.7927
  13   2.0000      -0.419675       -11.4199
  14   2.0000      -0.414834       -11.2882
  15   0.0000       0.113646         3.0925
  16   0.0000       0.307735         8.3739
  17   0.0000       0.563724        15.3397
  18   0.0000       0.642322        17.4785
  19   0.0000       0.709341        19.3022

MULLIKEN ATOMIC CHARGES
-----------------------
   0 C :    0.169472
   1 O :   -0.342418
   2 C :   -0.197029
   3 C :   -0.230432
   4 H :    0.130117
   5 H :    0.153385
   6 H :    0.157296
   7 H :    0.159609
Sum of atomic charges:   -0.0000000

LOEWDIN ATOMIC CHARGES
----------------------
   0 C :    0.150532
   1 O :   -0.254879
   2 C :   -0.133262
   3 C :   -0.116103
   4 H :    0.069746
   5 H :    0.088595
   6 H :    0.092449
   7 H :    0.102921

  Mayer bond orders larger than 0.100000
B(  0-C ,  1-O ) :   1.9013 B(  0-C ,  2-C ) :   1.0403 B(  0-C ,  4-H ) :   0.9265
B(  2-C ,  3-C ) :   1.9386 B(  2-C ,  5-H ) :   0.9564 B(  3-C ,  6-H ) :   0.9611
B(  3-C ,  7-H ) :   0.9603

-----------------------------------------------------------------------------
         ABSORPTION SPECTRUM VIA TRANSITION ELECTRIC DIPOLE MOMENTS
-----------------------------------------------------------------------------
State   Energy    Wavelength  fosc         T2        TX        TY        TZ
        (cm-1)      (nm)                 (au**2)    (au)      (au)      (au)
-----------------------------------------------------------------------------
   1   29925.6    334.2   0.000025078   0.00028  -0.01139  -0.00053  -0.01208

Dispersion correction           -0.026296315
FINAL SINGLE POINT ENERGY      -189.307457276186

DIPOLE MOMENT
-------------
                                X             Y             Z
Electronic contribution:     -1.92126      -1.73387       0.35307
Nuclear contribution   :      2.35699       2.66617      -0.45467
                        -----------------------------------------
Total Dipole Moment    :      0.43573       0.93230      -0.10160
                        -----------------------------------------
Magnitude (a.u.)       :      1.03410
Magnitude (Debye)      :      2.62847

Rotational constants in cm-1:     0.872212     0.199914     0.163013
Rotational constants in MHz : 26148.251987  5993.282322  4886.999934

                             ****ORCA TERMINATED NORMALLY****
TOTAL RUN TIME: 0 days 0 hours 0 minutes 13 seconds 119 msec
