                         Program Version 5.0.3 -  RELEASE  -
|  1> ! B3LYP cc-pVDZ
|  2> !TightSCF
|  3> %scf
|  4>  ConvForced true
|  5>  convergence tight
|  6>  MaxIter 500
|  7> end
|  8>
|  9> %tddft
| 10>  nroots 1
| 11> end
| 12>
| 13> # 	30676
| 14> * xyz 0 1
| 15> 		C   -0.572205  -0.395681  -0.007220
| 16> 		O   -0.557917  -1.608420   0.007944
| 17> 		C    0.605561   0.415760  -0.008623
| 18> 		C    1.835550  -0.167111   0.016637
| 19> 		H   -1.568751  -0.062944  -0.032753
| 20> 		H    0.379195   1.435603   0.069245
| 21> 		H    2.003094  -1.217656  -0.137173
| 22> 		H    2.703625   0.379084  -0.030967
| 23> *
| 24>
| 25>                          ****END OF INPUT****

CARTESIAN COORDINATES (ANGSTROEM)
---------------------------------
  C     -0.572205   -0.395681   -0.007220
  O     -0.557917   -1.608420    0.007944
  C      0.605561    0.415760   -0.008623
  C      1.835550   -0.167111    0.016637
  H     -1.568751   -0.062944   -0.032753
  H      0.379195    1.435603    0.069245
  H      2.003094   -1.217656   -0.137173
  H      2.703625    0.379084   -0.030967

 Total Charge           Charge          ....    0
 Multiplicity           Mult            ....    1
 Number of Electrons    NEL             ....   30
 Basis Dimension        Dim             ....   76

ORBITAL ENERGIES
----------------

  NO   OCC          E(Eh)            E(eV)
   0   2.0000     -19.122657      -520.3540
   1   2.0000     -10.256518      -279.0940
   2   2.0000     -10.212287      -277.8905
   3   2.0000     -10.203960      -277.6639
   4   2.0000      -1.037947       -28.2440
   5   2.0000      -0.797276       -21.6950
   6   2.0000      -0.669937       -18.2299
   7   2.0000      -0.555451       -15.1146
   8   2.0000      -0.514466       -13.9993
   9   2.0000      -0.455217       -12.3871
  10   2.0000      -0.421619       -11.4728
  11   2.0000      -0.395088       -10.7509
  12   2.0000      -0.384862       -10.4726
  13   2.0000      -0.283535        -7.7154
  14   2.0000      -0.244872        -6.6633
  15   0.0000      -0.074848        -2.0367
  16   0.0000       0.066085         1.7983
  17   0.0000       0.078809         2.1445
  18   0.0000       0.098417         2.6781
  19   0.0000       0.127931         3.4812

MULLIKEN ATOMIC CHARGES
-----------------------
   0 C :    0.193027
   1 O :   -0.207517
   2 C :   -0.085542
   3 C :    0.121383
   4 H :   -0.044620
   5 H :   -0.025966
   6 H :    0.036338
   7 H :    0.012896
Sum of atomic charges:    0.0000000

LOEWDIN ATOMIC CHARGES
----------------------
   0 C :   -0.041450
   1 O :   -0.015071
   2 C :   -0.063147
   3 C :    0.060756
   4 H :   -0.009422
   5 H :    0.019932
   6 H :    0.033540
   7 H :    0.014862

  Mayer bond orders larger than 0.100000
B(  0-C ,  1-O ) :   2.1667 B(  0-C ,  2-C ) :   1.0882 B(  0-C ,  4-H ) :   0.9497
B(  1-O ,  3-C ) :   0.1099 B(  2-C ,  3-C ) :   1.9370 B(  2-C ,  5-H ) :   0.9517
B(  3-C ,  6-H ) :   0.9401 B(  3-C ,  7-H ) :   0.9479

-----------------------------------------------------------------------------
         ABSORPTION SPECTRUM VIA TRANSITION ELECTRIC DIPOLE MOMENTS
-----------------------------------------------------------------------------
State   Energy    Wavelength  fosc         T2        TX        TY        TZ
        (cm-1)      (nm)                 (au**2)    (au)      (au)      (au)
-----------------------------------------------------------------------------
   1   24634.8    405.9   0.000102051   0.00136   0.02519   0.00130   0.02698

FINAL SINGLE POINT ENERGY      -191.678100187346

DIPOLE MOMENT
-------------
                                X             Y             Z
Electronic contribution:     -1.72545      -1.38655       0.09069
Nuclear contribution   :      2.14459       2.28904      -0.12366
                        -----------------------------------------
Total Dipole Moment    :      0.41915       0.90249      -0.03296
                        -----------------------------------------
Magnitude (a.u.)       :      0.99562
Magnitude (Debye)      :      2.53067

Rotational constants in cm-1:     0.753947     0.219588     0.170167
Rotational constants in MHz : 22602.767855  6583.072957  5101.476334

                             ****ORCA TERMINATED NORMALLY****
TOTAL RUN TIME: 0 days 0 hours 2 minutes 58 seconds 931 msec
