                         Program Version 5.0.3 -  RELEASE  -
|  1> ! HF-3c
|  2> !TightSCF
|  3> %scf
|  4>  ConvForced true
|  5>  convergence tight
|  6>  MaxIter 500
|  7> end
|  8>
|  9> %tddft
| 10>  nroots 1
| 11> end
| 12>
| 13> # 	16359
| 14> * xyz 0 1
| 15> 		C   -1.193191  -0.373121  -0.043246
| 16> 		O   -2.219063  -0.316854  -0.805282
| 17> 		C    0.071916   0.326070  -0.349994
| 18> 		C    1.128073   0.072558   0.254286
| 19> 		H   -1.071602  -1.012157   0.757227
| 20> 		H    0.023624   1.194476  -0.974174
| 21> 		H    1.235989  -0.507571   0.923223
| 22> 		H    1.958713   0.660569   0.140033
| 23> *
| 24>
| 25>                          ****END OF INPUT****

CARTESIAN COORDINATES (ANGSTROEM)
---------------------------------
  C     -1.193191   -0.373121   -0.043246
  O     -2.219063   -0.316854   -0.805282
  C      0.071916    0.326070   -0.349994
  C      1.128073    0.072558    0.254286
  H     -1.071602   -1.012157    0.757227
  H      0.023624    1.194476   -0.974174
  H      1.235989   -0.507571    0.923223
  H      1.958713    0.660569    0.140033

 Total Charge           Charge          ....    0
 Multiplicity           Mult            ....    1
 Number of Electrons    NEL             ....   30
 Basis Dimension        Dim             ....   24

ORBITAL ENERGIES
----------------

  NO   OCC          E(Eh)            E(eV)
   0   2.0000     -20.372655      -554.3681
   1   2.0000     -11.295730      -307.3724
   2   2.0000     -11.218138      -305.2611
   3   2.0000     -11.210689      -305.0583
   4   2.0000      -1.366049       -37.1721
   5   2.0000      -1.142125       -31.0788
   6   2.0000      -0.921118       -25.0649
   7   2.0000      -0.823506       -22.4087
   8   2.0000      -0.699127       -19.0242
   9   2.0000      -0.682524       -18.5724
  10   2.0000      -0.589405       -16.0385
  11   2.0000      -0.564932       -15.3726
  12   2.0000      -0.531040       -14.4503
  13   2.0000      -0.432054       -11.7568
  14   2.0000      -0.425673       -11.5831
  15   0.0000       0.115559         3.1445
  16   0.0000       0.294955         8.0261
  17   0.0000       0.570620        15.5274
  18   0.0000       0.648401        17.6439
  19   0.0000       0.693494        18.8709

MULLIKEN ATOMIC CHARGES
-----------------------
   0 C :    0.146181
   1 O :   -0.317195
   2 C :   -0.149822
   3 C :   -0.293622
   4 H :    0.145207
   5 H :    0.165265
   6 H :    0.143452
   7 H :    0.160535
Sum of atomic charges:   -0.0000000

LOEWDIN ATOMIC CHARGES
----------------------
   0 C :    0.147333
   1 O :   -0.241290
   2 C :   -0.092394
   3 C :   -0.176366
   4 H :    0.076030
   5 H :    0.105758
   6 H :    0.078680
   7 H :    0.102248

  Mayer bond orders larger than 0.100000
B(  0-C ,  1-O ) :   1.9156 B(  0-C ,  2-C ) :   1.0242 B(  0-C ,  4-H ) :   0.9359
B(  2-C ,  3-C ) :   1.9663 B(  2-C ,  5-H ) :   0.9492 B(  3-C ,  6-H ) :   0.9645
B(  3-C ,  7-H ) :   0.9555

-----------------------------------------------------------------------------
         ABSORPTION SPECTRUM VIA TRANSITION ELECTRIC DIPOLE MOMENTS
-----------------------------------------------------------------------------
State   Energy    Wavelength  fosc         T2        TX        TY        TZ
        (cm-1)      (nm)                 (au**2)    (au)      (au)      (au)
-----------------------------------------------------------------------------
   1   28534.0    350.5   0.000038687   0.00045   0.00961   0.01242  -0.01413

Dispersion correction           -0.026429478
FINAL SINGLE POINT ENERGY      -189.294498821696

DIPOLE MOMENT
-------------
                                X             Y             Z
Electronic contribution:     -3.33953      -0.51235      -1.15910
Nuclear contribution   :      4.21607       0.60726       1.70269
                        -----------------------------------------
Total Dipole Moment    :      0.87654       0.09490       0.54359
                        -----------------------------------------
Magnitude (a.u.)       :      1.03577
Magnitude (Debye)      :      2.63271

Rotational constants in cm-1:     1.713378     0.156529     0.144205
Rotational constants in MHz : 51365.775370  4692.624534  4323.164910

                             ****ORCA TERMINATED NORMALLY****
TOTAL RUN TIME: 0 days 0 hours 0 minutes 16 seconds 61 msec
