                         Program Version 5.0.3 -  RELEASE  -
|  1> ! HF-3c
|  2> !TightSCF
|  3> %scf
|  4>  ConvForced true
|  5>  convergence tight
|  6>  MaxIter 500
|  7> end
|  8>
|  9> %tddft
| 10>  nroots 1
| 11> end
| 12>
| 13> # 	13620
| 14> * xyz 0 1
| 15> 		C   -1.298138  -0.326562   0.019587
| 16> 		O   -1.179774  -1.523244   0.059626
| 17> 		C   -0.038289   0.549268  -0.002598
| 18> 		C    1.198198   0.003759   0.083512
| 19> 		H   -2.186393   0.320723  -0.023760
| 20> 		H   -0.133889   1.598365   0.099123
| 21> 		H    1.342995  -1.153605  -0.130708
| 22> 		H    2.255919   0.517209  -0.086862
| 23> *
| 24>
| 25>                          ****END OF INPUT****

CARTESIAN COORDINATES (ANGSTROEM)
---------------------------------
  C     -1.298138   -0.326562    0.019587
  O     -1.179774   -1.523244    0.059626
  C     -0.038289    0.549268   -0.002598
  C      1.198198    0.003759    0.083512
  H     -2.186393    0.320723   -0.023760
  H     -0.133889    1.598365    0.099123
  H      1.342995   -1.153605   -0.130708
  H      2.255919    0.517209   -0.086862

 Total Charge           Charge          ....    0
 Multiplicity           Mult            ....    1
 Number of Electrons    NEL             ....   30
 Basis Dimension        Dim             ....   24

ORBITAL ENERGIES
----------------

  NO   OCC          E(Eh)            E(eV)
   0   2.0000     -20.372783      -554.3716
   1   2.0000     -11.301367      -307.5258
   2   2.0000     -11.175943      -304.1129
   3   2.0000     -11.168590      -303.9128
   4   2.0000      -1.408504       -38.3273
   5   2.0000      -1.048938       -28.5430
   6   2.0000      -0.874095       -23.7853
   7   2.0000      -0.738184       -20.0870
   8   2.0000      -0.688098       -18.7241
   9   2.0000      -0.607855       -16.5406
  10   2.0000      -0.579594       -15.7715
  11   2.0000      -0.541047       -14.7226
  12   2.0000      -0.497028       -13.5248
  13   2.0000      -0.408585       -11.1182
  14   2.0000      -0.380158       -10.3446
  15   0.0000       0.137809         3.7500
  16   0.0000       0.296827         8.0771
  17   0.0000       0.490506        13.3474
  18   0.0000       0.590579        16.0705
  19   0.0000       0.629844        17.1389

MULLIKEN ATOMIC CHARGES
-----------------------
   0 C :    0.175990
   1 O :   -0.354176
   2 C :   -0.194820
   3 C :   -0.191267
   4 H :    0.143772
   5 H :    0.132166
   6 H :    0.146321
   7 H :    0.142015
Sum of atomic charges:    0.0000000

LOEWDIN ATOMIC CHARGES
----------------------
   0 C :    0.157748
   1 O :   -0.256064
   2 C :   -0.155319
   3 C :   -0.106749
   4 H :    0.078675
   5 H :    0.080954
   6 H :    0.101364
   7 H :    0.099392

  Mayer bond orders larger than 0.100000
B(  0-C ,  1-O ) :   1.9251 B(  0-C ,  2-C ) :   0.9995 B(  0-C ,  4-H ) :   0.9205
B(  2-C ,  3-C ) :   1.9480 B(  2-C ,  5-H ) :   0.9636 B(  3-C ,  6-H ) :   0.9572
B(  3-C ,  7-H ) :   0.9616

-----------------------------------------------------------------------------
         ABSORPTION SPECTRUM VIA TRANSITION ELECTRIC DIPOLE MOMENTS
-----------------------------------------------------------------------------
State   Energy    Wavelength  fosc         T2        TX        TY        TZ
        (cm-1)      (nm)                 (au**2)    (au)      (au)      (au)
-----------------------------------------------------------------------------
   1   33665.7    297.0   0.000123578   0.00121  -0.03476  -0.00008   0.00008

Dispersion correction           -0.025248206
FINAL SINGLE POINT ENERGY      -189.316277659953

DIPOLE MOMENT
-------------
                                X             Y             Z
Electronic contribution:     -2.21244      -1.68511       0.19118
Nuclear contribution   :      2.47550       2.54888      -0.26812
                        -----------------------------------------
Total Dipole Moment    :      0.26306       0.86376      -0.07694
                        -----------------------------------------
Magnitude (a.u.)       :      0.90620
Magnitude (Debye)      :      2.30339

Rotational constants in cm-1:     0.715780     0.209348     0.162272
Rotational constants in MHz : 21458.544268  6276.106166  4864.779577

                             ****ORCA TERMINATED NORMALLY****
TOTAL RUN TIME: 0 days 0 hours 0 minutes 15 seconds 998 msec
