                         Program Version 5.0.3 -  RELEASE  -
|  1> ! B3LYP cc-pVDZ
|  2> !TightSCF
|  3> %scf
|  4>  ConvForced true
|  5>  convergence tight
|  6>  MaxIter 500
|  7> end
|  8>
|  9> %tddft
| 10>  nroots 1
| 11> end
| 12>
| 13> # 	3961
| 14> * xyz 0 1
| 15> 		C   -1.157397  -0.327104  -0.027185
| 16> 		O   -1.188399  -1.455813   0.136607
| 17> 		C    0.010178   0.591668   0.075317
| 18> 		C    1.238879   0.025145  -0.059871
| 19> 		H   -2.227984   0.123047  -0.336758
| 20> 		H   -0.094447   1.625551   0.196216
| 21> 		H    1.252679  -1.130636  -0.214230
| 22> 		H    2.222577   0.566178   0.133128
| 23> *
| 24>
| 25>                          ****END OF INPUT****

CARTESIAN COORDINATES (ANGSTROEM)
---------------------------------
  C     -1.157397   -0.327104   -0.027185
  O     -1.188399   -1.455813    0.136607
  C      0.010178    0.591668    0.075317
  C      1.238879    0.025145   -0.059871
  H     -2.227984    0.123047   -0.336758
  H     -0.094447    1.625551    0.196216
  H      1.252679   -1.130636   -0.214230
  H      2.222577    0.566178    0.133128

 Total Charge           Charge          ....    0
 Multiplicity           Mult            ....    1
 Number of Electrons    NEL             ....   30
 Basis Dimension        Dim             ....   76

ORBITAL ENERGIES
----------------

  NO   OCC          E(Eh)            E(eV)
   0   2.0000     -19.139890      -520.8229
   1   2.0000     -10.276614      -279.6409
   2   2.0000     -10.224854      -278.2324
   3   2.0000     -10.205308      -277.7006
   4   2.0000      -1.090055       -29.6619
   5   2.0000      -0.791282       -21.5319
   6   2.0000      -0.637265       -17.3409
   7   2.0000      -0.536008       -14.5855
   8   2.0000      -0.512837       -13.9550
   9   2.0000      -0.450223       -12.2512
  10   2.0000      -0.435896       -11.8613
  11   2.0000      -0.412143       -11.2150
  12   2.0000      -0.381980       -10.3942
  13   2.0000      -0.288390        -7.8475
  14   2.0000      -0.250617        -6.8196
  15   0.0000      -0.059828        -1.6280
  16   0.0000       0.057126         1.5545
  17   0.0000       0.072238         1.9657
  18   0.0000       0.081659         2.2220
  19   0.0000       0.115327         3.1382

MULLIKEN ATOMIC CHARGES
-----------------------
   0 C :    0.138023
   1 O :   -0.121957
   2 C :   -0.061078
   3 C :   -0.000531
   4 H :   -0.043672
   5 H :   -0.019603
   6 H :    0.057924
   7 H :    0.050894
Sum of atomic charges:    0.0000000

LOEWDIN ATOMIC CHARGES
----------------------
   0 C :   -0.083383
   1 O :    0.065508
   2 C :   -0.075219
   3 C :    0.008432
   4 H :   -0.018746
   5 H :    0.017781
   6 H :    0.045757
   7 H :    0.039868

  Mayer bond orders larger than 0.100000
B(  0-C ,  1-O ) :   2.2698 B(  0-C ,  2-C ) :   0.9987 B(  0-C ,  4-H ) :   0.8965
B(  2-C ,  3-C ) :   1.9542 B(  2-C ,  5-H ) :   0.9552 B(  3-C ,  6-H ) :   0.9285
B(  3-C ,  7-H ) :   0.9464

-----------------------------------------------------------------------------
         ABSORPTION SPECTRUM VIA TRANSITION ELECTRIC DIPOLE MOMENTS
-----------------------------------------------------------------------------
State   Energy    Wavelength  fosc         T2        TX        TY        TZ
        (cm-1)      (nm)                 (au**2)    (au)      (au)      (au)
-----------------------------------------------------------------------------
   1   29829.1    335.2   0.000436079   0.00481  -0.05634   0.00431   0.04026

FINAL SINGLE POINT ENERGY      -191.650486824705

DIPOLE MOMENT
-------------
                                X             Y             Z
Electronic contribution:     -1.72821      -1.59216       0.27793
Nuclear contribution   :      2.18959       2.34055      -0.32830
                        -----------------------------------------
Total Dipole Moment    :      0.46139       0.74839      -0.05037
                        -----------------------------------------
Magnitude (a.u.)       :      0.88062
Magnitude (Debye)      :      2.23836

Rotational constants in cm-1:     0.782577     0.208762     0.166466
Rotational constants in MHz : 23461.081225  6258.512965  4990.513947

                             ****ORCA TERMINATED NORMALLY****
TOTAL RUN TIME: 0 days 0 hours 3 minutes 27 seconds 867 msec
