                         Program Version 5.0.3 -  RELEASE  -
|  1> ! B3LYP cc-pVDZ
|  2> !TightSCF
|  3> %scf
|  4>  ConvForced true
|  5>  convergence tight
|  6>  MaxIter 500
|  7> end
|  8>
|  9> %tddft
| 10>  nroots 1
| 11> end
| 12>
| 13> # 	19069
| 14> * xyz 0 1
| 15> 		C   -1.232965  -0.337327   0.034408
| 16> 		O   -1.576629  -1.313863   0.670609
| 17> 		C   -0.020553   0.410331   0.395721
| 18> 		C    1.192165  -0.013267  -0.115328
| 19> 		H   -1.735050  -0.000204  -0.980197
| 20> 		H   -0.135883   1.429164   0.825149
| 21> 		H    1.331670  -0.826995  -0.707324
| 22> 		H    2.128322   0.566186  -0.103213
| 23> *
| 24>
| 25>                          ****END OF INPUT****

CARTESIAN COORDINATES (ANGSTROEM)
---------------------------------
  C     -1.232965   -0.337327    0.034408
  O     -1.576629   -1.313863    0.670609
  C     -0.020553    0.410331    0.395721
  C      1.192165   -0.013267   -0.115328
  H     -1.735050   -0.000204   -0.980197
  H     -0.135883    1.429164    0.825149
  H      1.331670   -0.826995   -0.707324
  H      2.128322    0.566186   -0.103213

 Total Charge           Charge          ....    0
 Multiplicity           Mult            ....    1
 Number of Electrons    NEL             ....   30
 Basis Dimension        Dim             ....   76

ORBITAL ENERGIES
----------------

  NO   OCC          E(Eh)            E(eV)
   0   2.0000     -19.146882      -521.0131
   1   2.0000     -10.287714      -279.9429
   2   2.0000     -10.215965      -277.9905
   3   2.0000     -10.206627      -277.7364
   4   2.0000      -1.050761       -28.5927
   5   2.0000      -0.789702       -21.4889
   6   2.0000      -0.654962       -17.8224
   7   2.0000      -0.556528       -15.1439
   8   2.0000      -0.489490       -13.3197
   9   2.0000      -0.460306       -12.5256
  10   2.0000      -0.444572       -12.0974
  11   2.0000      -0.390813       -10.6346
  12   2.0000      -0.374148       -10.1811
  13   2.0000      -0.279645        -7.6095
  14   2.0000      -0.257172        -6.9980
  15   0.0000      -0.034634        -0.9425
  16   0.0000      -0.026125        -0.7109
  17   0.0000       0.080089         2.1793
  18   0.0000       0.089059         2.4234
  19   0.0000       0.101659         2.7663

MULLIKEN ATOMIC CHARGES
-----------------------
   0 C :    0.150218
   1 O :   -0.180319
   2 C :   -0.072840
   3 C :    0.036188
   4 H :    0.005920
   5 H :    0.027558
   6 H :    0.001601
   7 H :    0.031674
Sum of atomic charges:   -0.0000000

LOEWDIN ATOMIC CHARGES
----------------------
   0 C :   -0.030249
   1 O :    0.007044
   2 C :   -0.050618
   3 C :   -0.009148
   4 H :    0.004230
   5 H :    0.040646
   6 H :    0.005401
   7 H :    0.032693

  Mayer bond orders larger than 0.100000
B(  0-C ,  1-O ) :   2.2159 B(  0-C ,  2-C ) :   0.9910 B(  0-C ,  4-H ) :   0.8967
B(  2-C ,  3-C ) :   2.0088 B(  2-C ,  5-H ) :   0.9334 B(  3-C ,  6-H ) :   0.9595
B(  3-C ,  7-H ) :   0.9593

-----------------------------------------------------------------------------
         ABSORPTION SPECTRUM VIA TRANSITION ELECTRIC DIPOLE MOMENTS
-----------------------------------------------------------------------------
State   Energy    Wavelength  fosc         T2        TX        TY        TZ
        (cm-1)      (nm)                 (au**2)    (au)      (au)      (au)
-----------------------------------------------------------------------------
   1   33252.7    300.7   0.000186939   0.00185   0.02484   0.00288   0.03501

FINAL SINGLE POINT ENERGY      -191.631690442579

DIPOLE MOMENT
-------------
                                X             Y             Z
Electronic contribution:     -2.64429      -1.59674       1.31815
Nuclear contribution   :      3.10446       2.36173      -1.80565
                        -----------------------------------------
Total Dipole Moment    :      0.46018       0.76499      -0.48750
                        -----------------------------------------
Magnitude (a.u.)       :      1.01717
Magnitude (Debye)      :      2.58543

Rotational constants in cm-1:     0.887967     0.174944     0.162211
Rotational constants in MHz : 26620.588088  5244.691016  4862.970425

                             ****ORCA TERMINATED NORMALLY****
TOTAL RUN TIME: 0 days 0 hours 3 minutes 22 seconds 138 msec
