                         Program Version 5.0.3 -  RELEASE  -
|  1> ! B3LYP cc-pVDZ
|  2> !TightSCF
|  3> %scf
|  4>  ConvForced true
|  5>  convergence tight
|  6>  MaxIter 500
|  7> end
|  8>
|  9> %tddft
| 10>  nroots 1
| 11> end
| 12>
| 13> # 	2302
| 14> * xyz 0 1
| 15> 		C   -1.180717  -0.282892  -0.044942
| 16> 		O   -1.227659  -1.412892  -0.370899
| 17> 		C    0.003263   0.550290  -0.129107
| 18> 		C    1.239476  -0.058235  -0.001690
| 19> 		H   -2.113539   0.152293   0.516385
| 20> 		H   -0.129668   1.754923  -0.341998
| 21> 		H    1.241020  -1.243394   0.159054
| 22> 		H    2.197999   0.485323   0.205928
| 23> *
| 24>
| 25>                          ****END OF INPUT****

CARTESIAN COORDINATES (ANGSTROEM)
---------------------------------
  C     -1.180717   -0.282892   -0.044942
  O     -1.227659   -1.412892   -0.370899
  C      0.003263    0.550290   -0.129107
  C      1.239476   -0.058235   -0.001690
  H     -2.113539    0.152293    0.516385
  H     -0.129668    1.754923   -0.341998
  H      1.241020   -1.243394    0.159054
  H      2.197999    0.485323    0.205928

 Total Charge           Charge          ....    0
 Multiplicity           Mult            ....    1
 Number of Electrons    NEL             ....   30
 Basis Dimension        Dim             ....   76

ORBITAL ENERGIES
----------------

  NO   OCC          E(Eh)            E(eV)
   0   2.0000     -19.136693      -520.7359
   1   2.0000     -10.275819      -279.6193
   2   2.0000     -10.230712      -278.3918
   3   2.0000     -10.222875      -278.1786
   4   2.0000      -1.066713       -29.0267
   5   2.0000      -0.784721       -21.3533
   6   2.0000      -0.647040       -17.6068
   7   2.0000      -0.528740       -14.3878
   8   2.0000      -0.494421       -13.4539
   9   2.0000      -0.445399       -12.1199
  10   2.0000      -0.435381       -11.8473
  11   2.0000      -0.395667       -10.7666
  12   2.0000      -0.371159       -10.0997
  13   2.0000      -0.283223        -7.7069
  14   2.0000      -0.253547        -6.8994
  15   0.0000      -0.063448        -1.7265
  16   0.0000       0.027540         0.7494
  17   0.0000       0.066508         1.8098
  18   0.0000       0.078349         2.1320
  19   0.0000       0.101328         2.7573

MULLIKEN ATOMIC CHARGES
-----------------------
   0 C :    0.161960
   1 O :   -0.162396
   2 C :   -0.138053
   3 C :   -0.004651
   4 H :   -0.021820
   5 H :    0.041961
   6 H :    0.069721
   7 H :    0.053278
Sum of atomic charges:    0.0000000

LOEWDIN ATOMIC CHARGES
----------------------
   0 C :   -0.073393
   1 O :    0.026874
   2 C :   -0.089416
   3 C :   -0.002263
   4 H :   -0.005109
   5 H :    0.052434
   6 H :    0.054139
   7 H :    0.036734

  Mayer bond orders larger than 0.100000
B(  0-C ,  1-O ) :   2.2250 B(  0-C ,  2-C ) :   1.0296 B(  0-C ,  4-H ) :   0.9039
B(  2-C ,  3-C ) :   1.9316 B(  2-C ,  5-H ) :   0.9321 B(  3-C ,  6-H ) :   0.9325
B(  3-C ,  7-H ) :   0.9477

-----------------------------------------------------------------------------
         ABSORPTION SPECTRUM VIA TRANSITION ELECTRIC DIPOLE MOMENTS
-----------------------------------------------------------------------------
State   Energy    Wavelength  fosc         T2        TX        TY        TZ
        (cm-1)      (nm)                 (au**2)    (au)      (au)      (au)
-----------------------------------------------------------------------------
   1   29478.4    339.2   0.000054781   0.00061  -0.00448  -0.01540  -0.01883

FINAL SINGLE POINT ENERGY      -191.648149539596

DIPOLE MOMENT
-------------
                                X             Y             Z
Electronic contribution:     -1.85212      -1.55831      -0.75324
Nuclear contribution   :      2.29256       2.32959       1.00461
                        -----------------------------------------
Total Dipole Moment    :      0.44044       0.77128       0.25137
                        -----------------------------------------
Magnitude (a.u.)       :      0.92307
Magnitude (Debye)      :      2.34625

Rotational constants in cm-1:     0.730612     0.211324     0.167804
Rotational constants in MHz : 21903.206207  6335.332545  5030.635545

                             ****ORCA TERMINATED NORMALLY****
TOTAL RUN TIME: 0 days 0 hours 3 minutes 26 seconds 65 msec
