                         Program Version 5.0.3 -  RELEASE  -
|  1> ! B3LYP cc-pVDZ
|  2> !TightSCF
|  3> %scf
|  4>  ConvForced true
|  5>  convergence tight
|  6>  MaxIter 500
|  7> end
|  8>
|  9> %tddft
| 10>  nroots 1
| 11> end
| 12>
| 13> # 	1117
| 14> * xyz 0 1
| 15> 		C   -1.142009  -0.366143  -0.006422
| 16> 		O   -2.153221  -0.515159  -0.688442
| 17> 		C   -0.058386   0.359384  -0.432055
| 18> 		C    1.104943   0.174529   0.196840
| 19> 		H   -1.019994  -0.944678   1.030663
| 20> 		H   -0.075963   1.071661  -1.219327
| 21> 		H    1.147703  -0.438113   1.186740
| 22> 		H    2.179260   0.670492  -0.036024
| 23> *
| 24>
| 25>                          ****END OF INPUT****

CARTESIAN COORDINATES (ANGSTROEM)
---------------------------------
  C     -1.142009   -0.366143   -0.006422
  O     -2.153221   -0.515159   -0.688442
  C     -0.058386    0.359384   -0.432055
  C      1.104943    0.174529    0.196840
  H     -1.019994   -0.944678    1.030663
  H     -0.075963    1.071661   -1.219327
  H      1.147703   -0.438113    1.186740
  H      2.179260    0.670492   -0.036024

 Total Charge           Charge          ....    0
 Multiplicity           Mult            ....    1
 Number of Electrons    NEL             ....   30
 Basis Dimension        Dim             ....   76

ORBITAL ENERGIES
----------------

  NO   OCC          E(Eh)            E(eV)
   0   2.0000     -19.132751      -520.6286
   1   2.0000     -10.273184      -279.5476
   2   2.0000     -10.238893      -278.6145
   3   2.0000     -10.205620      -277.7090
   4   2.0000      -1.034474       -28.1495
   5   2.0000      -0.820393       -22.3240
   6   2.0000      -0.645153       -17.5555
   7   2.0000      -0.570637       -15.5278
   8   2.0000      -0.476420       -12.9640
   9   2.0000      -0.467457       -12.7201
  10   2.0000      -0.413988       -11.2652
  11   2.0000      -0.394857       -10.7446
  12   2.0000      -0.380335       -10.3494
  13   2.0000      -0.293769        -7.9939
  14   2.0000      -0.253891        -6.9087
  15   0.0000      -0.070942        -1.9304
  16   0.0000       0.046411         1.2629
  17   0.0000       0.056396         1.5346
  18   0.0000       0.072384         1.9697
  19   0.0000       0.118725         3.2307

MULLIKEN ATOMIC CHARGES
-----------------------
   0 C :    0.149458
   1 O :   -0.213745
   2 C :    0.033802
   3 C :   -0.056161
   4 H :   -0.019426
   5 H :   -0.007000
   6 H :    0.048674
   7 H :    0.064399
Sum of atomic charges:    0.0000000

LOEWDIN ATOMIC CHARGES
----------------------
   0 C :   -0.054193
   1 O :   -0.020124
   2 C :   -0.061975
   3 C :    0.006341
   4 H :    0.003156
   5 H :    0.034939
   6 H :    0.040205
   7 H :    0.051651

  Mayer bond orders larger than 0.100000
B(  0-C ,  1-O ) :   2.1128 B(  0-C ,  2-C ) :   1.1284 B(  0-C ,  4-H ) :   0.9121
B(  1-O ,  3-C ) :   0.1300 B(  2-C ,  3-C ) :   1.8675 B(  2-C ,  5-H ) :   0.9541
B(  3-C ,  6-H ) :   0.9372 B(  3-C ,  7-H ) :   0.9426

-----------------------------------------------------------------------------
         ABSORPTION SPECTRUM VIA TRANSITION ELECTRIC DIPOLE MOMENTS
-----------------------------------------------------------------------------
State   Energy    Wavelength  fosc         T2        TX        TY        TZ
        (cm-1)      (nm)                 (au**2)    (au)      (au)      (au)
-----------------------------------------------------------------------------
   1   27479.0    363.9   0.000231190   0.00277   0.04926  -0.01849   0.00122

FINAL SINGLE POINT ENERGY      -191.662588753184

DIPOLE MOMENT
-------------
                                X             Y             Z
Electronic contribution:     -3.15731      -0.39753      -1.33653
Nuclear contribution   :      4.30215       0.72363       1.76243
                        -----------------------------------------
Total Dipole Moment    :      1.14484       0.32610       0.42590
                        -----------------------------------------
Magnitude (a.u.)       :      1.26427
Magnitude (Debye)      :      3.21353

Rotational constants in cm-1:     1.509563     0.164731     0.149751
Rotational constants in MHz : 45255.568835  4938.512561  4489.425004

                             ****ORCA TERMINATED NORMALLY****
TOTAL RUN TIME: 0 days 0 hours 3 minutes 18 seconds 842 msec
