                         Program Version 5.0.3 -  RELEASE  -
|  1> ! B3LYP cc-pVDZ
|  2> !TightSCF
|  3> %scf
|  4>  ConvForced true
|  5>  convergence tight
|  6>  MaxIter 500
|  7> end
|  8>
|  9> %tddft
| 10>  nroots 1
| 11> end
| 12>
| 13> # 	29626
| 14> * xyz 0 1
| 15> 		C   -0.592339  -0.452953   0.047995
| 16> 		O   -0.556082  -1.592700  -0.023029
| 17> 		C    0.620954   0.451224  -0.040080
| 18> 		C    1.837274  -0.191310   0.023081
| 19> 		H   -1.488344   0.012906   0.005517
| 20> 		H    0.607269   1.500481  -0.000105
| 21> 		H    1.982408  -1.302722   0.074629
| 22> 		H    2.486234   0.614799  -0.090464
| 23> *
| 24>
| 25>                          ****END OF INPUT****

CARTESIAN COORDINATES (ANGSTROEM)
---------------------------------
  C     -0.592339   -0.452953    0.047995
  O     -0.556082   -1.592700   -0.023029
  C      0.620954    0.451224   -0.040080
  C      1.837274   -0.191310    0.023081
  H     -1.488344    0.012906    0.005517
  H      0.607269    1.500481   -0.000105
  H      1.982408   -1.302722    0.074629
  H      2.486234    0.614799   -0.090464

 Total Charge           Charge          ....    0
 Multiplicity           Mult            ....    1
 Number of Electrons    NEL             ....   30
 Basis Dimension        Dim             ....   76

ORBITAL ENERGIES
----------------

  NO   OCC          E(Eh)            E(eV)
   0   2.0000     -19.133361      -520.6452
   1   2.0000     -10.257472      -279.1200
   2   2.0000     -10.207144      -277.7505
   3   2.0000     -10.195581      -277.4359
   4   2.0000      -1.083607       -29.4864
   5   2.0000      -0.786561       -21.4034
   6   2.0000      -0.649810       -17.6822
   7   2.0000      -0.548330       -14.9208
   8   2.0000      -0.523920       -14.2566
   9   2.0000      -0.453281       -12.3344
  10   2.0000      -0.416844       -11.3429
  11   2.0000      -0.407005       -11.0752
  12   2.0000      -0.392204       -10.6724
  13   2.0000      -0.279567        -7.6074
  14   2.0000      -0.249715        -6.7951
  15   0.0000      -0.058610        -1.5949
  16   0.0000       0.063725         1.7340
  17   0.0000       0.076907         2.0927
  18   0.0000       0.094218         2.5638
  19   0.0000       0.127409         3.4670

MULLIKEN ATOMIC CHARGES
-----------------------
   0 C :    0.234685
   1 O :   -0.142198
   2 C :   -0.148145
   3 C :    0.082840
   4 H :   -0.067948
   5 H :   -0.022132
   6 H :    0.053174
   7 H :    0.009725
Sum of atomic charges:   -0.0000000

LOEWDIN ATOMIC CHARGES
----------------------
   0 C :   -0.066975
   1 O :    0.064239
   2 C :   -0.071161
   3 C :    0.025563
   4 H :   -0.031209
   5 H :    0.015240
   6 H :    0.042973
   7 H :    0.021330

  Mayer bond orders larger than 0.100000
B(  0-C ,  1-O ) :   2.2653 B(  0-C ,  2-C ) :   1.0155 B(  0-C ,  4-H ) :   0.9312
B(  2-C ,  3-C ) :   1.9507 B(  2-C ,  5-H ) :   0.9505 B(  3-C ,  6-H ) :   0.9402
B(  3-C ,  7-H ) :   0.9399

-----------------------------------------------------------------------------
         ABSORPTION SPECTRUM VIA TRANSITION ELECTRIC DIPOLE MOMENTS
-----------------------------------------------------------------------------
State   Energy    Wavelength  fosc         T2        TX        TY        TZ
        (cm-1)      (nm)                 (au**2)    (au)      (au)      (au)
-----------------------------------------------------------------------------
   1   29560.3    338.3   0.000304407   0.00339   0.05186   0.01442   0.02221

FINAL SINGLE POINT ENERGY      -191.634682754533

DIPOLE MOMENT
-------------
                                X             Y             Z
Electronic contribution:     -1.93955      -1.77245       0.05311
Nuclear contribution   :      2.20637       2.56313      -0.00967
                        -----------------------------------------
Total Dipole Moment    :      0.26681       0.79068       0.04344
                        -----------------------------------------
Magnitude (a.u.)       :      0.83561
Magnitude (Debye)      :      2.12396

Rotational constants in cm-1:     0.760150     0.218373     0.169897
Rotational constants in MHz : 22788.737053  6546.660788  5093.397322

                             ****ORCA TERMINATED NORMALLY****
TOTAL RUN TIME: 0 days 0 hours 3 minutes 18 seconds 624 msec
