                         Program Version 5.0.3 -  RELEASE  -
|  1> ! HF-3c
|  2> !TightSCF
|  3> %scf
|  4>  ConvForced true
|  5>  convergence tight
|  6>  MaxIter 500
|  7> end
|  8>
|  9> %tddft
| 10>  nroots 1
| 11> end
| 12>
| 13> # 	29553
| 14> * xyz 0 1
| 15> 		C   -0.567170  -0.428584  -0.021016
| 16> 		O   -0.568992  -1.641356   0.013290
| 17> 		C    0.602201   0.409171   0.022236
| 18> 		C    1.847179  -0.132079   0.005136
| 19> 		H   -1.464781   0.257281  -0.191005
| 20> 		H    0.469806   1.638914   0.160181
| 21> 		H    1.822401  -1.290536  -0.016317
| 22> 		H    2.751035   0.516668  -0.242351
| 23> *
| 24>
| 25>                          ****END OF INPUT****

CARTESIAN COORDINATES (ANGSTROEM)
---------------------------------
  C     -0.567170   -0.428584   -0.021016
  O     -0.568992   -1.641356    0.013290
  C      0.602201    0.409171    0.022236
  C      1.847179   -0.132079    0.005136
  H     -1.464781    0.257281   -0.191005
  H      0.469806    1.638914    0.160181
  H      1.822401   -1.290536   -0.016317
  H      2.751035    0.516668   -0.242351

 Total Charge           Charge          ....    0
 Multiplicity           Mult            ....    1
 Number of Electrons    NEL             ....   30
 Basis Dimension        Dim             ....   24

ORBITAL ENERGIES
----------------

  NO   OCC          E(Eh)            E(eV)
   0   2.0000     -20.357039      -553.9432
   1   2.0000     -11.291638      -307.2611
   2   2.0000     -11.181778      -304.2716
   3   2.0000     -11.171131      -303.9819
   4   2.0000      -1.394814       -37.9548
   5   2.0000      -1.063824       -28.9481
   6   2.0000      -0.885477       -24.0950
   7   2.0000      -0.711522       -19.3615
   8   2.0000      -0.678566       -18.4647
   9   2.0000      -0.602211       -16.3870
  10   2.0000      -0.575291       -15.6545
  11   2.0000      -0.541090       -14.7238
  12   2.0000      -0.495785       -13.4910
  13   2.0000      -0.406529       -11.0622
  14   2.0000      -0.375410       -10.2154
  15   0.0000       0.127475         3.4688
  16   0.0000       0.314430         8.5561
  17   0.0000       0.492602        13.4044
  18   0.0000       0.560453        15.2507
  19   0.0000       0.592960        16.1353

MULLIKEN ATOMIC CHARGES
-----------------------
   0 C :    0.163128
   1 O :   -0.364692
   2 C :   -0.172620
   3 C :   -0.205966
   4 H :    0.131086
   5 H :    0.136182
   6 H :    0.163704
   7 H :    0.149177
Sum of atomic charges:   -0.0000000

LOEWDIN ATOMIC CHARGES
----------------------
   0 C :    0.146498
   1 O :   -0.272152
   2 C :   -0.146745
   3 C :   -0.113389
   4 H :    0.071397
   5 H :    0.097022
   6 H :    0.114770
   7 H :    0.102598

  Mayer bond orders larger than 0.100000
B(  0-C ,  1-O ) :   1.8882 B(  0-C ,  2-C ) :   1.0516 B(  0-C ,  4-H ) :   0.9169
B(  2-C ,  3-C ) :   1.9159 B(  2-C ,  5-H ) :   0.9553 B(  3-C ,  6-H ) :   0.9512
B(  3-C ,  7-H ) :   0.9624

-----------------------------------------------------------------------------
         ABSORPTION SPECTRUM VIA TRANSITION ELECTRIC DIPOLE MOMENTS
-----------------------------------------------------------------------------
State   Energy    Wavelength  fosc         T2        TX        TY        TZ
        (cm-1)      (nm)                 (au**2)    (au)      (au)      (au)
-----------------------------------------------------------------------------
   1   32683.6    306.0   0.000043442   0.00044  -0.01350  -0.00044  -0.01597

Dispersion correction           -0.025761957
FINAL SINGLE POINT ENERGY      -189.309080377193

DIPOLE MOMENT
-------------
                                X             Y             Z
Electronic contribution:     -1.81630      -1.83155       0.19176
Nuclear contribution   :      2.19895       2.83959      -0.27121
                        -----------------------------------------
Total Dipole Moment    :      0.38266       1.00804      -0.07945
                        -----------------------------------------
Magnitude (a.u.)       :      1.08115
Magnitude (Debye)      :      2.74806

Rotational constants in cm-1:     0.734238     0.213032     0.165566
Rotational constants in MHz : 22011.890089  6386.532815  4963.531533

                             ****ORCA TERMINATED NORMALLY****
TOTAL RUN TIME: 0 days 0 hours 0 minutes 9 seconds 239 msec
