                         Program Version 5.0.3 -  RELEASE  -
|  1> ! B3LYP cc-pVDZ
|  2> !TightSCF
|  3> %scf
|  4>  ConvForced true
|  5>  convergence tight
|  6>  MaxIter 500
|  7> end
|  8>
|  9> %tddft
| 10>  nroots 1
| 11> end
| 12>
| 13> # 	1713
| 14> * xyz 0 1
| 15> 		C   -1.170113  -0.349600  -0.053920
| 16> 		O   -1.722668  -1.063423  -0.829955
| 17> 		C   -0.005783   0.478836  -0.250571
| 18> 		C    1.203259   0.044239   0.212733
| 19> 		H   -1.502297  -0.345933   0.942300
| 20> 		H   -0.231756   1.417480  -0.820007
| 21> 		H    1.403935  -0.929559   0.672667
| 22> 		H    2.043293   0.702243   0.068537
| 23> *
| 24>
| 25>                          ****END OF INPUT****

CARTESIAN COORDINATES (ANGSTROEM)
---------------------------------
  C     -1.170113   -0.349600   -0.053920
  O     -1.722668   -1.063423   -0.829955
  C     -0.005783    0.478836   -0.250571
  C      1.203259    0.044239    0.212733
  H     -1.502297   -0.345933    0.942300
  H     -0.231756    1.417480   -0.820007
  H      1.403935   -0.929559    0.672667
  H      2.043293    0.702243    0.068537

 Total Charge           Charge          ....    0
 Multiplicity           Mult            ....    1
 Number of Electrons    NEL             ....   30
 Basis Dimension        Dim             ....   76

ORBITAL ENERGIES
----------------

  NO   OCC          E(Eh)            E(eV)
   0   2.0000     -19.138579      -520.7872
   1   2.0000     -10.266564      -279.3674
   2   2.0000     -10.211986      -277.8823
   3   2.0000     -10.211318      -277.8641
   4   2.0000      -1.058296       -28.7977
   5   2.0000      -0.798276       -21.7222
   6   2.0000      -0.659183       -17.9373
   7   2.0000      -0.564601       -15.3636
   8   2.0000      -0.490045       -13.3348
   9   2.0000      -0.466754       -12.7010
  10   2.0000      -0.443435       -12.0665
  11   2.0000      -0.396180       -10.7806
  12   2.0000      -0.377660       -10.2767
  13   2.0000      -0.282579        -7.6894
  14   2.0000      -0.251249        -6.8368
  15   0.0000      -0.040419        -1.0999
  16   0.0000      -0.003241        -0.0882
  17   0.0000       0.080362         2.1868
  18   0.0000       0.088682         2.4132
  19   0.0000       0.117357         3.1934

MULLIKEN ATOMIC CHARGES
-----------------------
   0 C :    0.189860
   1 O :   -0.173714
   2 C :   -0.106637
   3 C :    0.026751
   4 H :   -0.034098
   5 H :    0.033950
   6 H :    0.033767
   7 H :    0.030120
Sum of atomic charges:    0.0000000

LOEWDIN ATOMIC CHARGES
----------------------
   0 C :   -0.046009
   1 O :    0.026048
   2 C :   -0.052333
   3 C :   -0.019060
   4 H :   -0.015858
   5 H :    0.047281
   6 H :    0.031948
   7 H :    0.027983

  Mayer bond orders larger than 0.100000
B(  0-C ,  1-O ) :   2.2561 B(  0-C ,  2-C ) :   1.0105 B(  0-C ,  4-H ) :   0.9247
B(  2-C ,  3-C ) :   2.0134 B(  2-C ,  5-H ) :   0.9331 B(  3-C ,  6-H ) :   0.9514
B(  3-C ,  7-H ) :   0.9474

-----------------------------------------------------------------------------
         ABSORPTION SPECTRUM VIA TRANSITION ELECTRIC DIPOLE MOMENTS
-----------------------------------------------------------------------------
State   Energy    Wavelength  fosc         T2        TX        TY        TZ
        (cm-1)      (nm)                 (au**2)    (au)      (au)      (au)
-----------------------------------------------------------------------------
   1   32579.9    306.9   0.000077535   0.00078   0.00659  -0.00559  -0.02662

FINAL SINGLE POINT ENERGY      -191.638259011713

DIPOLE MOMENT
-------------
                                X             Y             Z
Electronic contribution:     -2.70489      -1.13937      -1.21935
Nuclear contribution   :      3.29575       1.72243       1.70572
                        -----------------------------------------
Total Dipole Moment    :      0.59085       0.58305       0.48637
                        -----------------------------------------
Magnitude (a.u.)       :      0.96209
Magnitude (Debye)      :      2.44543

Rotational constants in cm-1:     1.072176     0.166391     0.158543
Rotational constants in MHz : 32143.030176  4988.279348  4752.986483

                             ****ORCA TERMINATED NORMALLY****
TOTAL RUN TIME: 0 days 0 hours 3 minutes 20 seconds 81 msec
