                         Program Version 5.0.3 -  RELEASE  -
|  1> ! HF-3c
|  2> !TightSCF
|  3> %scf
|  4>  ConvForced true
|  5>  convergence tight
|  6>  MaxIter 500
|  7> end
|  8>
|  9> %tddft
| 10>  nroots 1
| 11> end
| 12>
| 13> # 	10650
| 14> * xyz 0 1
| 15> 		C   -1.226049  -0.373090   0.043288
| 16> 		O   -1.605504  -1.229029   0.763902
| 17> 		C    0.022068   0.422922   0.261266
| 18> 		C    1.199801   0.057241  -0.169641
| 19> 		H   -1.680891  -0.088180  -0.955651
| 20> 		H   -0.136677   1.532941   0.636894
| 21> 		H    1.318532  -1.019189  -0.544001
| 22> 		H    2.123645   0.701642  -0.058807
| 23> *
| 24>
| 25>                          ****END OF INPUT****

CARTESIAN COORDINATES (ANGSTROEM)
---------------------------------
  C     -1.226049   -0.373090    0.043288
  O     -1.605504   -1.229029    0.763902
  C      0.022068    0.422922    0.261266
  C      1.199801    0.057241   -0.169641
  H     -1.680891   -0.088180   -0.955651
  H     -0.136677    1.532941    0.636894
  H      1.318532   -1.019189   -0.544001
  H      2.123645    0.701642   -0.058807

 Total Charge           Charge          ....    0
 Multiplicity           Mult            ....    1
 Number of Electrons    NEL             ....   30
 Basis Dimension        Dim             ....   24

ORBITAL ENERGIES
----------------

  NO   OCC          E(Eh)            E(eV)
   0   2.0000     -20.390005      -554.8402
   1   2.0000     -11.310221      -307.7668
   2   2.0000     -11.181505      -304.2642
   3   2.0000     -11.172491      -304.0189
   4   2.0000      -1.430680       -38.9308
   5   2.0000      -1.074141       -29.2289
   6   2.0000      -0.876244       -23.8438
   7   2.0000      -0.740892       -20.1607
   8   2.0000      -0.678449       -18.4615
   9   2.0000      -0.631226       -17.1765
  10   2.0000      -0.609074       -16.5737
  11   2.0000      -0.537861       -14.6359
  12   2.0000      -0.503194       -13.6926
  13   2.0000      -0.410015       -11.1571
  14   2.0000      -0.398917       -10.8551
  15   0.0000       0.196281         5.3411
  16   0.0000       0.231970         6.3122
  17   0.0000       0.533627        14.5207
  18   0.0000       0.571187        15.5428
  19   0.0000       0.608828        16.5670

MULLIKEN ATOMIC CHARGES
-----------------------
   0 C :    0.184368
   1 O :   -0.346356
   2 C :   -0.161906
   3 C :   -0.242228
   4 H :    0.139256
   5 H :    0.146512
   6 H :    0.137624
   7 H :    0.142730
Sum of atomic charges:    0.0000000

LOEWDIN ATOMIC CHARGES
----------------------
   0 C :    0.156565
   1 O :   -0.239517
   2 C :   -0.125770
   3 C :   -0.160076
   4 H :    0.076702
   5 H :    0.102741
   6 H :    0.092974
   7 H :    0.096381

  Mayer bond orders larger than 0.100000
B(  0-C ,  1-O ) :   1.9569 B(  0-C ,  2-C ) :   0.9781 B(  0-C ,  4-H ) :   0.9081
B(  2-C ,  3-C ) :   2.0064 B(  2-C ,  5-H ) :   0.9421 B(  3-C ,  6-H ) :   0.9605
B(  3-C ,  7-H ) :   0.9602

-----------------------------------------------------------------------------
         ABSORPTION SPECTRUM VIA TRANSITION ELECTRIC DIPOLE MOMENTS
-----------------------------------------------------------------------------
State   Energy    Wavelength  fosc         T2        TX        TY        TZ
        (cm-1)      (nm)                 (au**2)    (au)      (au)      (au)
-----------------------------------------------------------------------------
   1   36462.0    274.3   0.000052987   0.00048  -0.00570   0.01870  -0.00980

Dispersion correction           -0.025028433
FINAL SINGLE POINT ENERGY      -189.306569268961

DIPOLE MOMENT
-------------
                                X             Y             Z
Electronic contribution:     -2.70681      -1.47583       1.11978
Nuclear contribution   :      3.11988       2.19794      -1.72106
                        -----------------------------------------
Total Dipole Moment    :      0.41307       0.72211      -0.60128
                        -----------------------------------------
Magnitude (a.u.)       :      1.02645
Magnitude (Debye)      :      2.60903

Rotational constants in cm-1:     0.990478     0.169679     0.158923
Rotational constants in MHz : 29693.794631  5086.841289  4764.401295

                             ****ORCA TERMINATED NORMALLY****
TOTAL RUN TIME: 0 days 0 hours 0 minutes 11 seconds 489 msec
