                         Program Version 5.0.3 -  RELEASE  -
|  1> ! B3LYP cc-pVDZ
|  2> !TightSCF
|  3> %scf
|  4>  ConvForced true
|  5>  convergence tight
|  6>  MaxIter 500
|  7> end
|  8>
|  9> %tddft
| 10>  nroots 1
| 11> end
| 12>
| 13> # 	10315
| 14> * xyz 0 1
| 15> 		C   -1.176011  -0.371194  -0.007714
| 16> 		O   -1.967958  -0.713010  -0.780982
| 17> 		C   -0.001855   0.479151  -0.336392
| 18> 		C    1.184449   0.100974   0.110912
| 19> 		H   -1.262450  -0.609670   1.011932
| 20> 		H   -0.160573   1.287828  -1.053947
| 21> 		H    1.225875  -0.789815   1.036548
| 22> 		H    2.122324   0.631329   0.029158
| 23> *
| 24>
| 25>                          ****END OF INPUT****

CARTESIAN COORDINATES (ANGSTROEM)
---------------------------------
  C     -1.176011   -0.371194   -0.007714
  O     -1.967958   -0.713010   -0.780982
  C     -0.001855    0.479151   -0.336392
  C      1.184449    0.100974    0.110912
  H     -1.262450   -0.609670    1.011932
  H     -0.160573    1.287828   -1.053947
  H      1.225875   -0.789815    1.036548
  H      2.122324    0.631329    0.029158

 Total Charge           Charge          ....    0
 Multiplicity           Mult            ....    1
 Number of Electrons    NEL             ....   30
 Basis Dimension        Dim             ....   76

ORBITAL ENERGIES
----------------

  NO   OCC          E(Eh)            E(eV)
   0   2.0000     -19.139729      -520.8185
   1   2.0000     -10.268257      -279.4135
   2   2.0000     -10.223201      -278.1874
   3   2.0000     -10.203782      -277.6590
   4   2.0000      -1.078921       -29.3589
   5   2.0000      -0.798843       -21.7376
   6   2.0000      -0.639794       -17.4097
   7   2.0000      -0.571363       -15.5476
   8   2.0000      -0.479731       -13.0542
   9   2.0000      -0.475339       -12.9346
  10   2.0000      -0.442587       -12.0434
  11   2.0000      -0.400835       -10.9073
  12   2.0000      -0.367348        -9.9960
  13   2.0000      -0.293396        -7.9837
  14   2.0000      -0.255264        -6.9461
  15   0.0000      -0.048004        -1.3063
  16   0.0000       0.030429         0.8280
  17   0.0000       0.055051         1.4980
  18   0.0000       0.091189         2.4814
  19   0.0000       0.119031         3.2390

MULLIKEN ATOMIC CHARGES
-----------------------
   0 C :    0.194183
   1 O :   -0.147925
   2 C :   -0.062398
   3 C :   -0.030394
   4 H :   -0.042136
   5 H :    0.011444
   6 H :    0.041201
   7 H :    0.036024
Sum of atomic charges:   -0.0000000

LOEWDIN ATOMIC CHARGES
----------------------
   0 C :   -0.056721
   1 O :    0.057692
   2 C :   -0.060544
   3 C :   -0.028429
   4 H :   -0.018702
   5 H :    0.034197
   6 H :    0.047577
   7 H :    0.024929

  Mayer bond orders larger than 0.100000
B(  0-C ,  1-O ) :   2.2582 B(  0-C ,  2-C ) :   1.0166 B(  0-C ,  4-H ) :   0.9199
B(  2-C ,  3-C ) :   1.9670 B(  2-C ,  5-H ) :   0.9452 B(  3-C ,  6-H ) :   0.9341
B(  3-C ,  7-H ) :   0.9460

-----------------------------------------------------------------------------
         ABSORPTION SPECTRUM VIA TRANSITION ELECTRIC DIPOLE MOMENTS
-----------------------------------------------------------------------------
State   Energy    Wavelength  fosc         T2        TX        TY        TZ
        (cm-1)      (nm)                 (au**2)    (au)      (au)      (au)
-----------------------------------------------------------------------------
   1   32664.4    306.1   0.000880716   0.00888   0.09215   0.01553   0.01201

FINAL SINGLE POINT ENERGY      -191.629396459718

DIPOLE MOMENT
-------------
                                X             Y             Z
Electronic contribution:     -3.04603      -0.64211      -1.43300
Nuclear contribution   :      3.75714       1.03974       1.90739
                        -----------------------------------------
Total Dipole Moment    :      0.71111       0.39763       0.47438
                        -----------------------------------------
Magnitude (a.u.)       :      0.94278
Magnitude (Debye)      :      2.39635

Rotational constants in cm-1:     1.269486     0.163974     0.153393
Rotational constants in MHz : 38058.245784  4915.807484  4598.608427

                             ****ORCA TERMINATED NORMALLY****
TOTAL RUN TIME: 0 days 0 hours 3 minutes 23 seconds 792 msec
