                         Program Version 5.0.3 -  RELEASE  -
|  1> ! HF-3c
|  2> !TightSCF
|  3> %scf
|  4>  ConvForced true
|  5>  convergence tight
|  6>  MaxIter 500
|  7> end
|  8>
|  9> %tddft
| 10>  nroots 1
| 11> end
| 12>
| 13> # 	5506
| 14> * xyz 0 1
| 15> 		C   -1.175820  -0.396390  -0.005685
| 16> 		O   -1.355203  -1.451755   0.436925
| 17> 		C   -0.002085   0.499188   0.148468
| 18> 		C    1.226977   0.008985  -0.060938
| 19> 		H   -2.016094   0.058282  -0.517768
| 20> 		H   -0.270899   1.642095   0.192034
| 21> 		H    1.541101  -1.014725  -0.182001
| 22> 		H    2.076695   0.671963  -0.008934
| 23> *
| 24>
| 25>                          ****END OF INPUT****

CARTESIAN COORDINATES (ANGSTROEM)
---------------------------------
  C     -1.175820   -0.396390   -0.005685
  O     -1.355203   -1.451755    0.436925
  C     -0.002085    0.499188    0.148468
  C      1.226977    0.008985   -0.060938
  H     -2.016094    0.058282   -0.517768
  H     -0.270899    1.642095    0.192034
  H      1.541101   -1.014725   -0.182001
  H      2.076695    0.671963   -0.008934

 Total Charge           Charge          ....    0
 Multiplicity           Mult            ....    1
 Number of Electrons    NEL             ....   30
 Basis Dimension        Dim             ....   24

ORBITAL ENERGIES
----------------

  NO   OCC          E(Eh)            E(eV)
   0   2.0000     -20.382204      -554.6280
   1   2.0000     -11.307486      -307.6923
   2   2.0000     -11.191424      -304.5341
   3   2.0000     -11.187483      -304.4269
   4   2.0000      -1.442464       -39.2514
   5   2.0000      -1.074258       -29.2321
   6   2.0000      -0.891284       -24.2531
   7   2.0000      -0.756433       -20.5836
   8   2.0000      -0.697515       -18.9804
   9   2.0000      -0.625721       -17.0267
  10   2.0000      -0.612771       -16.6743
  11   2.0000      -0.549737       -14.9591
  12   2.0000      -0.532943       -14.5021
  13   2.0000      -0.406977       -11.0744
  14   2.0000      -0.396714       -10.7951
  15   0.0000       0.153786         4.1847
  16   0.0000       0.286492         7.7958
  17   0.0000       0.516218        14.0470
  18   0.0000       0.595888        16.2149
  19   0.0000       0.681115        18.5341

MULLIKEN ATOMIC CHARGES
-----------------------
   0 C :    0.176796
   1 O :   -0.357300
   2 C :   -0.157522
   3 C :   -0.233076
   4 H :    0.127286
   5 H :    0.152141
   6 H :    0.152833
   7 H :    0.138841
Sum of atomic charges:   -0.0000000

LOEWDIN ATOMIC CHARGES
----------------------
   0 C :    0.146339
   1 O :   -0.244547
   2 C :   -0.122788
   3 C :   -0.134300
   4 H :    0.061108
   5 H :    0.106429
   6 H :    0.099231
   7 H :    0.088529

  Mayer bond orders larger than 0.100000
B(  0-C ,  1-O ) :   1.9267 B(  0-C ,  2-C ) :   1.0010 B(  0-C ,  4-H ) :   0.9188
B(  2-C ,  3-C ) :   1.9665 B(  2-C ,  5-H ) :   0.9508 B(  3-C ,  6-H ) :   0.9625
B(  3-C ,  7-H ) :   0.9650

-----------------------------------------------------------------------------
         ABSORPTION SPECTRUM VIA TRANSITION ELECTRIC DIPOLE MOMENTS
-----------------------------------------------------------------------------
State   Energy    Wavelength  fosc         T2        TX        TY        TZ
        (cm-1)      (nm)                 (au**2)    (au)      (au)      (au)
-----------------------------------------------------------------------------
   1   35932.0    278.3   0.000729779   0.00669   0.08047   0.01379   0.00447

Dispersion correction           -0.025197642
FINAL SINGLE POINT ENERGY      -189.311479660626

DIPOLE MOMENT
-------------
                                X             Y             Z
Electronic contribution:     -2.16284      -1.74233       0.60995
Nuclear contribution   :      2.55575       2.63085      -0.97908
                        -----------------------------------------
Total Dipole Moment    :      0.39291       0.88852      -0.36913
                        -----------------------------------------
Magnitude (a.u.)       :      1.03928
Magnitude (Debye)      :      2.64164

Rotational constants in cm-1:     0.847228     0.192200     0.161334
Rotational constants in MHz : 25399.269894  5761.996725  4836.686592

                             ****ORCA TERMINATED NORMALLY****
TOTAL RUN TIME: 0 days 0 hours 0 minutes 9 seconds 909 msec
