                         Program Version 5.0.3 -  RELEASE  -
|  1> ! HF-3c
|  2> !TightSCF
|  3> %scf
|  4>  ConvForced true
|  5>  convergence tight
|  6>  MaxIter 500
|  7> end
|  8>
|  9> %tddft
| 10>  nroots 1
| 11> end
| 12>
| 13> # 	15958
| 14> * xyz 0 1
| 15> 		C   -1.226579  -0.369697  -0.138229
| 16> 		O   -2.252402  -0.260165  -0.661655
| 17> 		C    0.067770   0.437662  -0.290899
| 18> 		C    1.204711   0.178860   0.292780
| 19> 		H   -1.039496  -1.230617   0.671141
| 20> 		H    0.078515   1.272337  -0.992504
| 21> 		H    1.234332  -0.746089   0.974690
| 22> 		H    1.913228   0.715168   0.113599
| 23> *
| 24>
| 25>                          ****END OF INPUT****

CARTESIAN COORDINATES (ANGSTROEM)
---------------------------------
  C     -1.226579   -0.369697   -0.138229
  O     -2.252402   -0.260165   -0.661655
  C      0.067770    0.437662   -0.290899
  C      1.204711    0.178860    0.292780
  H     -1.039496   -1.230617    0.671141
  H      0.078515    1.272337   -0.992504
  H      1.234332   -0.746089    0.974690
  H      1.913228    0.715168    0.113599

 Total Charge           Charge          ....    0
 Multiplicity           Mult            ....    1
 Number of Electrons    NEL             ....   30
 Basis Dimension        Dim             ....   24

ORBITAL ENERGIES
----------------

  NO   OCC          E(Eh)            E(eV)
   0   2.0000     -20.400491      -555.1256
   1   2.0000     -11.319004      -308.0057
   2   2.0000     -11.200547      -304.7824
   3   2.0000     -11.197146      -304.6898
   4   2.0000      -1.451164       -39.4882
   5   2.0000      -1.102545       -30.0018
   6   2.0000      -0.887476       -24.1494
   7   2.0000      -0.768716       -20.9178
   8   2.0000      -0.688077       -18.7235
   9   2.0000      -0.670908       -18.2563
  10   2.0000      -0.603970       -16.4349
  11   2.0000      -0.570081       -15.5127
  12   2.0000      -0.544974       -14.8295
  13   2.0000      -0.420505       -11.4425
  14   2.0000      -0.402782       -10.9603
  15   0.0000       0.140338         3.8188
  16   0.0000       0.312877         8.5138
  17   0.0000       0.516724        14.0608
  18   0.0000       0.545483        14.8433
  19   0.0000       0.644887        17.5483

MULLIKEN ATOMIC CHARGES
-----------------------
   0 C :    0.210091
   1 O :   -0.357896
   2 C :   -0.151269
   3 C :   -0.267890
   4 H :    0.118792
   5 H :    0.149761
   6 H :    0.153944
   7 H :    0.144467
Sum of atomic charges:   -0.0000000

LOEWDIN ATOMIC CHARGES
----------------------
   0 C :    0.163562
   1 O :   -0.239436
   2 C :   -0.108396
   3 C :   -0.160967
   4 H :    0.061761
   5 H :    0.095464
   6 H :    0.107745
   7 H :    0.080267

  Mayer bond orders larger than 0.100000
B(  0-C ,  1-O ) :   1.9469 B(  0-C ,  2-C ) :   0.9804 B(  0-C ,  4-H ) :   0.9011
B(  2-C ,  3-C ) :   1.9765 B(  2-C ,  5-H ) :   0.9544 B(  3-C ,  6-H ) :   0.9568
B(  3-C ,  7-H ) :   0.9685

-----------------------------------------------------------------------------
         ABSORPTION SPECTRUM VIA TRANSITION ELECTRIC DIPOLE MOMENTS
-----------------------------------------------------------------------------
State   Energy    Wavelength  fosc         T2        TX        TY        TZ
        (cm-1)      (nm)                 (au**2)    (au)      (au)      (au)
-----------------------------------------------------------------------------
   1   35923.9    278.4   0.000011147   0.00010  -0.00841   0.00351   0.00436

Dispersion correction           -0.025500325
FINAL SINGLE POINT ENERGY      -189.280624510878

DIPOLE MOMENT
-------------
                                X             Y             Z
Electronic contribution:     -3.34136      -0.17953      -1.05841
Nuclear contribution   :      4.25455       0.08604       1.47919
                        -----------------------------------------
Total Dipole Moment    :      0.91319      -0.09349       0.42078
                        -----------------------------------------
Magnitude (a.u.)       :      1.00981
Magnitude (Debye)      :      2.56672

Rotational constants in cm-1:     1.675148     0.150203     0.137905
Rotational constants in MHz : 50219.677172  4502.980830  4134.294765

                             ****ORCA TERMINATED NORMALLY****
TOTAL RUN TIME: 0 days 0 hours 0 minutes 10 seconds 437 msec
