                         Program Version 5.0.3 -  RELEASE  -
|  1> ! B3LYP cc-pVDZ
|  2> !TightSCF
|  3> %scf
|  4>  ConvForced true
|  5>  convergence tight
|  6>  MaxIter 500
|  7> end
|  8>
|  9> %tddft
| 10>  nroots 1
| 11> end
| 12>
| 13> # 	26932
| 14> * xyz 0 1
| 15> 		C   -0.546947  -0.441490  -0.083136
| 16> 		O   -0.629948  -1.686885   0.049565
| 17> 		C    0.638762   0.431831   0.058829
| 18> 		C    1.852592  -0.054281  -0.049865
| 19> 		H   -1.410335   0.256958  -0.138643
| 20> 		H    0.411226   1.324663   0.197411
| 21> 		H    1.927508  -1.133692  -0.116061
| 22> 		H    2.837629   0.332587   0.177257
| 23> *
| 24>
| 25>                          ****END OF INPUT****

CARTESIAN COORDINATES (ANGSTROEM)
---------------------------------
  C     -0.546947   -0.441490   -0.083136
  O     -0.629948   -1.686885    0.049565
  C      0.638762    0.431831    0.058829
  C      1.852592   -0.054281   -0.049865
  H     -1.410335    0.256958   -0.138643
  H      0.411226    1.324663    0.197411
  H      1.927508   -1.133692   -0.116061
  H      2.837629    0.332587    0.177257

 Total Charge           Charge          ....    0
 Multiplicity           Mult            ....    1
 Number of Electrons    NEL             ....   30
 Basis Dimension        Dim             ....   76

ORBITAL ENERGIES
----------------

  NO   OCC          E(Eh)            E(eV)
   0   2.0000     -19.143835      -520.9302
   1   2.0000     -10.278469      -279.6914
   2   2.0000     -10.210899      -277.8527
   3   2.0000     -10.192591      -277.3545
   4   2.0000      -1.022470       -27.8228
   5   2.0000      -0.811447       -22.0806
   6   2.0000      -0.673293       -18.3212
   7   2.0000      -0.561886       -15.2897
   8   2.0000      -0.513484       -13.9726
   9   2.0000      -0.450703       -12.2642
  10   2.0000      -0.426756       -11.6126
  11   2.0000      -0.386344       -10.5130
  12   2.0000      -0.378459       -10.2984
  13   2.0000      -0.293811        -7.9950
  14   2.0000      -0.257397        -7.0041
  15   0.0000      -0.076369        -2.0781
  16   0.0000       0.048943         1.3318
  17   0.0000       0.074986         2.0405
  18   0.0000       0.091919         2.5012
  19   0.0000       0.137399         3.7388

MULLIKEN ATOMIC CHARGES
-----------------------
   0 C :    0.177783
   1 O :   -0.220907
   2 C :    0.008843
   3 C :    0.086044
   4 H :   -0.014215
   5 H :   -0.099166
   6 H :    0.030634
   7 H :    0.030984
Sum of atomic charges:   -0.0000000

LOEWDIN ATOMIC CHARGES
----------------------
   0 C :    0.002979
   1 O :   -0.039726
   2 C :   -0.048774
   3 C :    0.041280
   4 H :   -0.002100
   5 H :   -0.018687
   6 H :    0.034388
   7 H :    0.030640

  Mayer bond orders larger than 0.100000
B(  0-C ,  1-O ) :   2.1454 B(  0-C ,  2-C ) :   1.0834 B(  0-C ,  4-H ) :   0.9126
B(  2-C ,  3-C ) :   1.9448 B(  2-C ,  5-H ) :   0.9580 B(  3-C ,  6-H ) :   0.9277
B(  3-C ,  7-H ) :   0.9571

-----------------------------------------------------------------------------
         ABSORPTION SPECTRUM VIA TRANSITION ELECTRIC DIPOLE MOMENTS
-----------------------------------------------------------------------------
State   Energy    Wavelength  fosc         T2        TX        TY        TZ
        (cm-1)      (nm)                 (au**2)    (au)      (au)      (au)
-----------------------------------------------------------------------------
   1   26606.0    375.9   0.000136255   0.00169   0.03185  -0.01292  -0.02247

FINAL SINGLE POINT ENERGY      -191.649884493892

DIPOLE MOMENT
-------------
                                X             Y             Z
Electronic contribution:     -1.88377      -1.55893      -0.12261
Nuclear contribution   :      2.37665       2.51967       0.11173
                        -----------------------------------------
Total Dipole Moment    :      0.49288       0.96074      -0.01088
                        -----------------------------------------
Magnitude (a.u.)       :      1.07985
Magnitude (Debye)      :      2.74476

Rotational constants in cm-1:     0.790120     0.199322     0.160068
Rotational constants in MHz : 23687.211639  5975.537545  4798.703103

                             ****ORCA TERMINATED NORMALLY****
TOTAL RUN TIME: 0 days 0 hours 3 minutes 22 seconds 318 msec
