                         Program Version 5.0.3 -  RELEASE  -
|  1> ! B3LYP cc-pVDZ
|  2> !TightSCF
|  3> %scf
|  4>  ConvForced true
|  5>  convergence tight
|  6>  MaxIter 500
|  7> end
|  8>
|  9> %tddft
| 10>  nroots 1
| 11> end
| 12>
| 13> # 	16464
| 14> * xyz 0 1
| 15> 		C   -1.217768  -0.273854   0.072833
| 16> 		O   -1.388439  -1.319087  -0.564273
| 17> 		C   -0.021478   0.561679  -0.111330
| 18> 		C    1.229543   0.050430   0.081735
| 19> 		H   -1.871890   0.089992   0.730042
| 20> 		H   -0.303309   1.530413  -0.443256
| 21> 		H    1.343870  -1.129935   0.347108
| 22> 		H    2.218935   0.507802  -0.156242
| 23> *
| 24>
| 25>                          ****END OF INPUT****

CARTESIAN COORDINATES (ANGSTROEM)
---------------------------------
  C     -1.217768   -0.273854    0.072833
  O     -1.388439   -1.319087   -0.564273
  C     -0.021478    0.561679   -0.111330
  C      1.229543    0.050430    0.081735
  H     -1.871890    0.089992    0.730042
  H     -0.303309    1.530413   -0.443256
  H      1.343870   -1.129935    0.347108
  H      2.218935    0.507802   -0.156242

 Total Charge           Charge          ....    0
 Multiplicity           Mult            ....    1
 Number of Electrons    NEL             ....   30
 Basis Dimension        Dim             ....   76

ORBITAL ENERGIES
----------------

  NO   OCC          E(Eh)            E(eV)
   0   2.0000     -19.140387      -520.8364
   1   2.0000     -10.269234      -279.4401
   2   2.0000     -10.224150      -278.2133
   3   2.0000     -10.207176      -277.7514
   4   2.0000      -1.033955       -28.1354
   5   2.0000      -0.788542       -21.4573
   6   2.0000      -0.664867       -18.0920
   7   2.0000      -0.562996       -15.3199
   8   2.0000      -0.496921       -13.5219
   9   2.0000      -0.453923       -12.3519
  10   2.0000      -0.435446       -11.8491
  11   2.0000      -0.372229       -10.1289
  12   2.0000      -0.369918       -10.0660
  13   2.0000      -0.283447        -7.7130
  14   2.0000      -0.253731        -6.9044
  15   0.0000      -0.054011        -1.4697
  16   0.0000       0.006301         0.1715
  17   0.0000       0.074527         2.0280
  18   0.0000       0.080272         2.1843
  19   0.0000       0.119107         3.2411

MULLIKEN ATOMIC CHARGES
-----------------------
   0 C :    0.226537
   1 O :   -0.211149
   2 C :   -0.059935
   3 C :   -0.026611
   4 H :   -0.033918
   5 H :    0.001258
   6 H :    0.057658
   7 H :    0.046161
Sum of atomic charges:   -0.0000000

LOEWDIN ATOMIC CHARGES
----------------------
   0 C :    0.006833
   1 O :   -0.014157
   2 C :   -0.058125
   3 C :   -0.023986
   4 H :   -0.021899
   5 H :    0.026769
   6 H :    0.052001
   7 H :    0.032563

  Mayer bond orders larger than 0.100000
B(  0-C ,  1-O ) :   2.1909 B(  0-C ,  2-C ) :   1.0365 B(  0-C ,  4-H ) :   0.9322
B(  2-C ,  3-C ) :   1.9761 B(  2-C ,  5-H ) :   0.9423 B(  3-C ,  6-H ) :   0.9386
B(  3-C ,  7-H ) :   0.9536

-----------------------------------------------------------------------------
         ABSORPTION SPECTRUM VIA TRANSITION ELECTRIC DIPOLE MOMENTS
-----------------------------------------------------------------------------
State   Energy    Wavelength  fosc         T2        TX        TY        TZ
        (cm-1)      (nm)                 (au**2)    (au)      (au)      (au)
-----------------------------------------------------------------------------
   1   29850.7    335.0   0.000432376   0.00477   0.06775   0.01331   0.00086

FINAL SINGLE POINT ENERGY      -191.640421133583

DIPOLE MOMENT
-------------
                                X             Y             Z
Electronic contribution:     -2.35929      -1.18426      -0.58927
Nuclear contribution   :      2.68788       1.99460       0.97919
                        -----------------------------------------
Total Dipole Moment    :      0.32858       0.81034       0.38992
                        -----------------------------------------
Magnitude (a.u.)       :      0.95742
Magnitude (Debye)      :      2.43357

Rotational constants in cm-1:     0.786549     0.191441     0.163115
Rotational constants in MHz : 23580.155029  5739.270451  4890.064639

                             ****ORCA TERMINATED NORMALLY****
TOTAL RUN TIME: 0 days 0 hours 3 minutes 19 seconds 162 msec
