                         Program Version 5.0.3 -  RELEASE  -
|  1> ! B3LYP cc-pVDZ
|  2> !TightSCF
|  3> %scf
|  4>  ConvForced true
|  5>  convergence tight
|  6>  MaxIter 500
|  7> end
|  8>
|  9> %tddft
| 10>  nroots 1
| 11> end
| 12>
| 13> # 	5715
| 14> * xyz 0 1
| 15> 		C   -1.120252  -0.361708  -0.053398
| 16> 		O   -1.911935  -0.703313  -0.928207
| 17> 		C    0.073451   0.429015  -0.233928
| 18> 		C    1.203856   0.168861   0.282977
| 19> 		H   -1.325312  -0.585495   1.061580
| 20> 		H   -0.123369   1.305144  -0.878612
| 21> 		H    1.305162  -0.846376   0.866798
| 22> 		H    1.919296   0.594612  -0.140316
| 23> *
| 24>
| 25>                          ****END OF INPUT****

CARTESIAN COORDINATES (ANGSTROEM)
---------------------------------
  C     -1.120252   -0.361708   -0.053398
  O     -1.911935   -0.703313   -0.928207
  C      0.073451    0.429015   -0.233928
  C      1.203856    0.168861    0.282977
  H     -1.325312   -0.585495    1.061580
  H     -0.123369    1.305144   -0.878612
  H      1.305162   -0.846376    0.866798
  H      1.919296    0.594612   -0.140316

 Total Charge           Charge          ....    0
 Multiplicity           Mult            ....    1
 Number of Electrons    NEL             ....   30
 Basis Dimension        Dim             ....   76

ORBITAL ENERGIES
----------------

  NO   OCC          E(Eh)            E(eV)
   0   2.0000     -19.143943      -520.9332
   1   2.0000     -10.279762      -279.7265
   2   2.0000     -10.202336      -277.6197
   3   2.0000     -10.198509      -277.5155
   4   2.0000      -1.039961       -28.2988
   5   2.0000      -0.826790       -22.4981
   6   2.0000      -0.668276       -18.1847
   7   2.0000      -0.556052       -15.1310
   8   2.0000      -0.497553       -13.5391
   9   2.0000      -0.470620       -12.8062
  10   2.0000      -0.433695       -11.8014
  11   2.0000      -0.399240       -10.8639
  12   2.0000      -0.370347       -10.0776
  13   2.0000      -0.303704        -8.2642
  14   2.0000      -0.255633        -6.9561
  15   0.0000      -0.057319        -1.5597
  16   0.0000       0.021778         0.5926
  17   0.0000       0.071446         1.9441
  18   0.0000       0.093477         2.5436
  19   0.0000       0.109689         2.9848

MULLIKEN ATOMIC CHARGES
-----------------------
   0 C :    0.148768
   1 O :   -0.201977
   2 C :   -0.090676
   3 C :    0.139256
   4 H :   -0.013559
   5 H :    0.012098
   6 H :    0.035124
   7 H :   -0.029033
Sum of atomic charges:    0.0000000

LOEWDIN ATOMIC CHARGES
----------------------
   0 C :   -0.023125
   1 O :   -0.012157
   2 C :   -0.053724
   3 C :    0.007486
   4 H :   -0.002638
   5 H :    0.042893
   6 H :    0.052968
   7 H :   -0.011705

  Mayer bond orders larger than 0.100000
B(  0-C ,  1-O ) :   2.1798 B(  0-C ,  2-C ) :   1.0492 B(  0-C ,  4-H ) :   0.9084
B(  2-C ,  3-C ) :   1.9966 B(  2-C ,  5-H ) :   0.9353 B(  3-C ,  6-H ) :   0.9336
B(  3-C ,  7-H ) :   0.9109

-----------------------------------------------------------------------------
         ABSORPTION SPECTRUM VIA TRANSITION ELECTRIC DIPOLE MOMENTS
-----------------------------------------------------------------------------
State   Energy    Wavelength  fosc         T2        TX        TY        TZ
        (cm-1)      (nm)                 (au**2)    (au)      (au)      (au)
-----------------------------------------------------------------------------
   1   29968.3    333.7   0.000075607   0.00083   0.02173  -0.00079  -0.01891

FINAL SINGLE POINT ENERGY      -191.624910545870

DIPOLE MOMENT
-------------
                                X             Y             Z
Electronic contribution:     -2.61845      -0.59322      -1.30429
Nuclear contribution   :      3.44625       0.96240       1.77935
                        -----------------------------------------
Total Dipole Moment    :      0.82780       0.36917       0.47506
                        -----------------------------------------
Magnitude (a.u.)       :      1.02334
Magnitude (Debye)      :      2.60112

Rotational constants in cm-1:     1.374196     0.160379     0.152335
Rotational constants in MHz : 41197.359970  4808.026636  4566.875187

                             ****ORCA TERMINATED NORMALLY****
TOTAL RUN TIME: 0 days 0 hours 3 minutes 20 seconds 719 msec
