                         Program Version 5.0.3 -  RELEASE  -
|  1> ! B3LYP cc-pVDZ
|  2> !TightSCF
|  3> %scf
|  4>  ConvForced true
|  5>  convergence tight
|  6>  MaxIter 500
|  7> end
|  8>
|  9> %tddft
| 10>  nroots 1
| 11> end
| 12>
| 13> # 	978
| 14> * xyz 0 1
| 15> 		C   -1.160192  -0.394690   0.063637
| 16> 		O   -2.156686  -0.453840   0.690932
| 17> 		C    0.048121   0.448159   0.355072
| 18> 		C    1.192616   0.063343  -0.256975
| 19> 		H   -1.115080  -0.990096  -0.792686
| 20> 		H   -0.215997   1.285126   1.092047
| 21> 		H    1.400126  -0.638775  -0.977152
| 22> 		H    2.016201   0.664410  -0.187751
| 23> *
| 24>
| 25>                          ****END OF INPUT****

CARTESIAN COORDINATES (ANGSTROEM)
---------------------------------
  C     -1.160192   -0.394690    0.063637
  O     -2.156686   -0.453840    0.690932
  C      0.048121    0.448159    0.355072
  C      1.192616    0.063343   -0.256975
  H     -1.115080   -0.990096   -0.792686
  H     -0.215997    1.285126    1.092047
  H      1.400126   -0.638775   -0.977152
  H      2.016201    0.664410   -0.187751

 Total Charge           Charge          ....    0
 Multiplicity           Mult            ....    1
 Number of Electrons    NEL             ....   30
 Basis Dimension        Dim             ....   76

ORBITAL ENERGIES
----------------

  NO   OCC          E(Eh)            E(eV)
   0   2.0000     -19.132368      -520.6182
   1   2.0000     -10.261203      -279.2215
   2   2.0000     -10.218319      -278.0546
   3   2.0000     -10.208901      -277.7983
   4   2.0000      -1.059875       -28.8407
   5   2.0000      -0.799516       -21.7559
   6   2.0000      -0.654959       -17.8223
   7   2.0000      -0.576566       -15.6892
   8   2.0000      -0.489672       -13.3247
   9   2.0000      -0.469944       -12.7878
  10   2.0000      -0.428714       -11.6659
  11   2.0000      -0.398900       -10.8546
  12   2.0000      -0.390426       -10.6240
  13   2.0000      -0.292625        -7.9627
  14   2.0000      -0.248171        -6.7531
  15   0.0000      -0.059860        -1.6289
  16   0.0000       0.045094         1.2271
  17   0.0000       0.077358         2.1050
  18   0.0000       0.087334         2.3765
  19   0.0000       0.122982         3.3465

MULLIKEN ATOMIC CHARGES
-----------------------
   0 C :    0.193033
   1 O :   -0.175993
   2 C :   -0.120307
   3 C :    0.113883
   4 H :   -0.056820
   5 H :    0.027013
   6 H :    0.011483
   7 H :    0.007709
Sum of atomic charges:   -0.0000000

LOEWDIN ATOMIC CHARGES
----------------------
   0 C :   -0.056880
   1 O :    0.026001
   2 C :   -0.045411
   3 C :    0.016264
   4 H :   -0.021423
   5 H :    0.046318
   6 H :    0.018076
   7 H :    0.017056

  Mayer bond orders larger than 0.100000
B(  0-C ,  1-O ) :   2.2125 B(  0-C ,  2-C ) :   1.0583 B(  0-C ,  4-H ) :   0.9329
B(  2-C ,  3-C ) :   1.9236 B(  2-C ,  5-H ) :   0.9427 B(  3-C ,  6-H ) :   0.9569
B(  3-C ,  7-H ) :   0.9463

-----------------------------------------------------------------------------
         ABSORPTION SPECTRUM VIA TRANSITION ELECTRIC DIPOLE MOMENTS
-----------------------------------------------------------------------------
State   Energy    Wavelength  fosc         T2        TX        TY        TZ
        (cm-1)      (nm)                 (au**2)    (au)      (au)      (au)
-----------------------------------------------------------------------------
   1   29003.1    344.8   0.000125223   0.00142   0.03712  -0.00515  -0.00409

FINAL SINGLE POINT ENERGY      -191.652354908251

DIPOLE MOMENT
-------------
                                X             Y             Z
Electronic contribution:     -3.04418      -0.48688       1.14254
Nuclear contribution   :      4.03690       0.66606      -1.61657
                        -----------------------------------------
Total Dipole Moment    :      0.99272       0.17919      -0.47402
                        -----------------------------------------
Magnitude (a.u.)       :      1.11458
Magnitude (Debye)      :      2.83304

Rotational constants in cm-1:     1.501256     0.156789     0.143191
Rotational constants in MHz : 45006.536507  4700.417777  4292.749212

                             ****ORCA TERMINATED NORMALLY****
TOTAL RUN TIME: 0 days 0 hours 3 minutes 17 seconds 618 msec
