                         Program Version 5.0.3 -  RELEASE  -
|  1> ! HF-3c
|  2> !TightSCF
|  3> %scf
|  4>  ConvForced true
|  5>  convergence tight
|  6>  MaxIter 500
|  7> end
|  8>
|  9> %tddft
| 10>  nroots 1
| 11> end
| 12>
| 13> # 	7594
| 14> * xyz 0 1
| 15> 		C   -1.214111  -0.371972   0.011072
| 16> 		O   -2.058124  -0.583831  -0.789902
| 17> 		C    0.017273   0.420736  -0.368742
| 18> 		C    1.208825   0.130960   0.235521
| 19> 		H   -1.203653  -0.704470   0.997420
| 20> 		H   -0.125405   1.140781  -1.185208
| 21> 		H    1.295318  -0.620430   1.119073
| 22> 		H    2.119718   0.631388  -0.008003
| 23> *
| 24>
| 25>                          ****END OF INPUT****

CARTESIAN COORDINATES (ANGSTROEM)
---------------------------------
  C     -1.214111   -0.371972    0.011072
  O     -2.058124   -0.583831   -0.789902
  C      0.017273    0.420736   -0.368742
  C      1.208825    0.130960    0.235521
  H     -1.203653   -0.704470    0.997420
  H     -0.125405    1.140781   -1.185208
  H      1.295318   -0.620430    1.119073
  H      2.119718    0.631388   -0.008003

 Total Charge           Charge          ....    0
 Multiplicity           Mult            ....    1
 Number of Electrons    NEL             ....   30
 Basis Dimension        Dim             ....   24

ORBITAL ENERGIES
----------------

  NO   OCC          E(Eh)            E(eV)
   0   2.0000     -20.381539      -554.6099
   1   2.0000     -11.307537      -307.6937
   2   2.0000     -11.184365      -304.3420
   3   2.0000     -11.182571      -304.2932
   4   2.0000      -1.428165       -38.8623
   5   2.0000      -1.063941       -28.9513
   6   2.0000      -0.876877       -23.8610
   7   2.0000      -0.788643       -21.4601
   8   2.0000      -0.663651       -18.0588
   9   2.0000      -0.646715       -17.5980
  10   2.0000      -0.593883       -16.1604
  11   2.0000      -0.549475       -14.9520
  12   2.0000      -0.534105       -14.5337
  13   2.0000      -0.412765       -11.2319
  14   2.0000      -0.387960       -10.5569
  15   0.0000       0.143938         3.9168
  16   0.0000       0.282465         7.6863
  17   0.0000       0.530002        14.4221
  18   0.0000       0.602826        16.4037
  19   0.0000       0.657680        17.8964

MULLIKEN ATOMIC CHARGES
-----------------------
   0 C :    0.168874
   1 O :   -0.350122
   2 C :   -0.161501
   3 C :   -0.228684
   4 H :    0.138527
   5 H :    0.153792
   6 H :    0.139419
   7 H :    0.139694
Sum of atomic charges:   -0.0000000

LOEWDIN ATOMIC CHARGES
----------------------
   0 C :    0.149577
   1 O :   -0.245126
   2 C :   -0.120980
   3 C :   -0.136678
   4 H :    0.068444
   5 H :    0.100619
   6 H :    0.095871
   7 H :    0.088274

  Mayer bond orders larger than 0.100000
B(  0-C ,  1-O ) :   1.9251 B(  0-C ,  2-C ) :   1.0012 B(  0-C ,  4-H ) :   0.9255
B(  2-C ,  3-C ) :   1.9617 B(  2-C ,  5-H ) :   0.9567 B(  3-C ,  6-H ) :   0.9634
B(  3-C ,  7-H ) :   0.9668

-----------------------------------------------------------------------------
         ABSORPTION SPECTRUM VIA TRANSITION ELECTRIC DIPOLE MOMENTS
-----------------------------------------------------------------------------
State   Energy    Wavelength  fosc         T2        TX        TY        TZ
        (cm-1)      (nm)                 (au**2)    (au)      (au)      (au)
-----------------------------------------------------------------------------
   1   34807.4    287.3   0.000089925   0.00085  -0.02322  -0.00940  -0.01494

Dispersion correction           -0.025265329
FINAL SINGLE POINT ENERGY      -189.325042350828

DIPOLE MOMENT
-------------
                                X             Y             Z
Electronic contribution:     -3.13277      -0.67650      -1.10349
Nuclear contribution   :      3.98836       0.86332       1.73982
                        -----------------------------------------
Total Dipole Moment    :      0.85559       0.18682       0.63633
                        -----------------------------------------
Magnitude (a.u.)       :      1.08251
Magnitude (Debye)      :      2.75153

Rotational constants in cm-1:     1.366566     0.157083     0.144777
Rotational constants in MHz : 40968.625489  4709.242106  4340.290614

                             ****ORCA TERMINATED NORMALLY****
TOTAL RUN TIME: 0 days 0 hours 0 minutes 13 seconds 670 msec
