                         Program Version 5.0.3 -  RELEASE  -
|  1> ! B3LYP cc-pVDZ
|  2> !TightSCF
|  3> %scf
|  4>  ConvForced true
|  5>  convergence tight
|  6>  MaxIter 500
|  7> end
|  8>
|  9> %tddft
| 10>  nroots 1
| 11> end
| 12>
| 13> # 	22163
| 14> * xyz 0 1
| 15> 		C   -0.628477  -0.404210   0.049142
| 16> 		O   -0.525398  -1.599645  -0.009840
| 17> 		C    0.591333   0.381658  -0.024792
| 18> 		C    1.855361  -0.173063   0.041053
| 19> 		H   -1.624779   0.088285  -0.177392
| 20> 		H    0.568342   1.560629  -0.105323
| 21> 		H    1.909684  -1.157028  -0.339092
| 22> 		H    2.761185   0.491000   0.001315
| 23> *
| 24>
| 25>                          ****END OF INPUT****

CARTESIAN COORDINATES (ANGSTROEM)
---------------------------------
  C     -0.628477   -0.404210    0.049142
  O     -0.525398   -1.599645   -0.009840
  C      0.591333    0.381658   -0.024792
  C      1.855361   -0.173063    0.041053
  H     -1.624779    0.088285   -0.177392
  H      0.568342    1.560629   -0.105323
  H      1.909684   -1.157028   -0.339092
  H      2.761185    0.491000    0.001315

 Total Charge           Charge          ....    0
 Multiplicity           Mult            ....    1
 Number of Electrons    NEL             ....   30
 Basis Dimension        Dim             ....   76

ORBITAL ENERGIES
----------------

  NO   OCC          E(Eh)            E(eV)
   0   2.0000     -19.137852      -520.7674
   1   2.0000     -10.276446      -279.6363
   2   2.0000     -10.215091      -277.9667
   3   2.0000     -10.214433      -277.9489
   4   2.0000      -1.055630       -28.7252
   5   2.0000      -0.783841       -21.3294
   6   2.0000      -0.656101       -17.8534
   7   2.0000      -0.536493       -14.5987
   8   2.0000      -0.503960       -13.7135
   9   2.0000      -0.445232       -12.1154
  10   2.0000      -0.422098       -11.4859
  11   2.0000      -0.403892       -10.9905
  12   2.0000      -0.374857       -10.2004
  13   2.0000      -0.275592        -7.4992
  14   2.0000      -0.257264        -7.0005
  15   0.0000      -0.081999        -2.2313
  16   0.0000       0.049903         1.3579
  17   0.0000       0.059892         1.6298
  18   0.0000       0.095649         2.6027
  19   0.0000       0.115774         3.1504

MULLIKEN ATOMIC CHARGES
-----------------------
   0 C :    0.182973
   1 O :   -0.182105
   2 C :   -0.147949
   3 C :    0.059434
   4 H :   -0.009222
   5 H :    0.013208
   6 H :    0.038098
   7 H :    0.045562
Sum of atomic charges:    0.0000000

LOEWDIN ATOMIC CHARGES
----------------------
   0 C :   -0.055076
   1 O :    0.009425
   2 C :   -0.078811
   3 C :    0.022688
   4 H :    0.002375
   5 H :    0.036136
   6 H :    0.023793
   7 H :    0.039470

  Mayer bond orders larger than 0.100000
B(  0-C ,  1-O ) :   2.1718 B(  0-C ,  2-C ) :   1.0572 B(  0-C ,  4-H ) :   0.9208
B(  1-O ,  3-C ) :   0.1046 B(  2-C ,  3-C ) :   1.9363 B(  2-C ,  5-H ) :   0.9379
B(  3-C ,  6-H ) :   0.9407 B(  3-C ,  7-H ) :   0.9448

-----------------------------------------------------------------------------
         ABSORPTION SPECTRUM VIA TRANSITION ELECTRIC DIPOLE MOMENTS
-----------------------------------------------------------------------------
State   Energy    Wavelength  fosc         T2        TX        TY        TZ
        (cm-1)      (nm)                 (au**2)    (au)      (au)      (au)
-----------------------------------------------------------------------------
   1   25870.4    386.5   0.000192221   0.00245   0.02582  -0.02661   0.03273

FINAL SINGLE POINT ENERGY      -191.665808367504

DIPOLE MOMENT
-------------
                                X             Y             Z
Electronic contribution:     -1.93797      -1.88056       0.47982
Nuclear contribution   :      2.23569       2.70960      -0.58246
                        -----------------------------------------
Total Dipole Moment    :      0.29772       0.82904      -0.10263
                        -----------------------------------------
Magnitude (a.u.)       :      0.88684
Magnitude (Debye)      :      2.25417

Rotational constants in cm-1:     0.734426     0.217675     0.168638
Rotational constants in MHz : 22017.543052  6525.746309  5055.639577

                             ****ORCA TERMINATED NORMALLY****
TOTAL RUN TIME: 0 days 0 hours 3 minutes 21 seconds 680 msec
