                         Program Version 5.0.3 -  RELEASE  -
|  1> ! B3LYP cc-pVDZ
|  2> !TightSCF
|  3> %scf
|  4>  ConvForced true
|  5>  convergence tight
|  6>  MaxIter 500
|  7> end
|  8>
|  9> %tddft
| 10>  nroots 1
| 11> end
| 12>
| 13> # 	17933
| 14> * xyz 0 1
| 15> 		C   -1.128525  -0.356499   0.013220
| 16> 		O   -1.957542  -0.638630  -0.904041
| 17> 		C    0.030564   0.408551  -0.329788
| 18> 		C    1.160978   0.101429   0.181331
| 19> 		H   -1.375834  -0.708638   1.154119
| 20> 		H    0.018835   1.154379  -1.012114
| 21> 		H    1.204179  -0.627171   1.005181
| 22> 		H    2.062013   0.694897  -0.084431
| 23> *
| 24>
| 25>                          ****END OF INPUT****

CARTESIAN COORDINATES (ANGSTROEM)
---------------------------------
  C     -1.128525   -0.356499    0.013220
  O     -1.957542   -0.638630   -0.904041
  C      0.030564    0.408551   -0.329788
  C      1.160978    0.101429    0.181331
  H     -1.375834   -0.708638    1.154119
  H      0.018835    1.154379   -1.012114
  H      1.204179   -0.627171    1.005181
  H      2.062013    0.694897   -0.084431

 Total Charge           Charge          ....    0
 Multiplicity           Mult            ....    1
 Number of Electrons    NEL             ....   30
 Basis Dimension        Dim             ....   76

ORBITAL ENERGIES
----------------

  NO   OCC          E(Eh)            E(eV)
   0   2.0000     -19.138792      -520.7930
   1   2.0000     -10.286301      -279.9045
   2   2.0000     -10.208326      -277.7827
   3   2.0000     -10.194417      -277.4042
   4   2.0000      -1.018027       -27.7019
   5   2.0000      -0.823778       -22.4161
   6   2.0000      -0.645071       -17.5533
   7   2.0000      -0.573971       -15.6186
   8   2.0000      -0.486606       -13.2412
   9   2.0000      -0.466470       -12.6933
  10   2.0000      -0.421923       -11.4811
  11   2.0000      -0.390967       -10.6388
  12   2.0000      -0.370571       -10.0838
  13   2.0000      -0.298636        -8.1263
  14   2.0000      -0.254858        -6.9350
  15   0.0000      -0.062250        -1.6939
  16   0.0000       0.025812         0.7024
  17   0.0000       0.072126         1.9626
  18   0.0000       0.082507         2.2451
  19   0.0000       0.107626         2.9287

MULLIKEN ATOMIC CHARGES
-----------------------
   0 C :    0.129164
   1 O :   -0.233741
   2 C :    0.033437
   3 C :    0.037884
   4 H :    0.016520
   5 H :   -0.031982
   6 H :    0.016724
   7 H :    0.031995
Sum of atomic charges:   -0.0000000

LOEWDIN ATOMIC CHARGES
----------------------
   0 C :   -0.000457
   1 O :   -0.051707
   2 C :   -0.054554
   3 C :   -0.000419
   4 H :    0.015909
   5 H :    0.021755
   6 H :    0.030281
   7 H :    0.039192

  Mayer bond orders larger than 0.100000
B(  0-C ,  1-O ) :   2.0968 B(  0-C ,  2-C ) :   1.0590 B(  0-C ,  4-H ) :   0.9088
B(  2-C ,  3-C ) :   1.9791 B(  2-C ,  5-H ) :   0.9474 B(  3-C ,  6-H ) :   0.9386
B(  3-C ,  7-H ) :   0.9316

-----------------------------------------------------------------------------
         ABSORPTION SPECTRUM VIA TRANSITION ELECTRIC DIPOLE MOMENTS
-----------------------------------------------------------------------------
State   Energy    Wavelength  fosc         T2        TX        TY        TZ
        (cm-1)      (nm)                 (au**2)    (au)      (au)      (au)
-----------------------------------------------------------------------------
   1   28332.2    353.0   0.001298839   0.01509   0.12251  -0.00703   0.00583

FINAL SINGLE POINT ENERGY      -191.652239762216

DIPOLE MOMENT
-------------
                                X             Y             Z
Electronic contribution:     -2.79046      -0.61068      -1.38851
Nuclear contribution   :      3.68664       1.00023       1.99281
                        -----------------------------------------
Total Dipole Moment    :      0.89618       0.38955       0.60430
                        -----------------------------------------
Magnitude (a.u.)       :      1.14894
Magnitude (Debye)      :      2.92037

Rotational constants in cm-1:     1.298049     0.166123     0.154457
Rotational constants in MHz : 38914.543230  4980.229006  4630.509511

                             ****ORCA TERMINATED NORMALLY****
TOTAL RUN TIME: 0 days 0 hours 3 minutes 25 seconds 87 msec
