                         Program Version 5.0.3 -  RELEASE  -
|  1> ! HF-3c
|  2> !TightSCF
|  3> %scf
|  4>  ConvForced true
|  5>  convergence tight
|  6>  MaxIter 500
|  7> end
|  8>
|  9> %tddft
| 10>  nroots 1
| 11> end
| 12>
| 13> # 	18660
| 14> * xyz 0 1
| 15> 		C   -1.280245  -0.364889  -0.043166
| 16> 		O   -1.110872  -1.539873   0.013942
| 17> 		C   -0.034550   0.498694   0.043186
| 18> 		C    1.306547  -0.124697   0.008234
| 19> 		H   -2.065902   0.474536   0.136456
| 20> 		H   -0.072998   1.586666  -0.109567
| 21> 		H    1.206892  -1.151515   0.008862
| 22> 		H    2.025312   0.653331  -0.046080
| 23> *
| 24>
| 25>                          ****END OF INPUT****

CARTESIAN COORDINATES (ANGSTROEM)
---------------------------------
  C     -1.280245   -0.364889   -0.043166
  O     -1.110872   -1.539873    0.013942
  C     -0.034550    0.498694    0.043186
  C      1.306547   -0.124697    0.008234
  H     -2.065902    0.474536    0.136456
  H     -0.072998    1.586666   -0.109567
  H      1.206892   -1.151515    0.008862
  H      2.025312    0.653331   -0.046080

 Total Charge           Charge          ....    0
 Multiplicity           Mult            ....    1
 Number of Electrons    NEL             ....   30
 Basis Dimension        Dim             ....   24

ORBITAL ENERGIES
----------------

  NO   OCC          E(Eh)            E(eV)
   0   2.0000     -20.376559      -554.4744
   1   2.0000     -11.300012      -307.4890
   2   2.0000     -11.168288      -303.9046
   3   2.0000     -11.146452      -303.3104
   4   2.0000      -1.420593       -38.6563
   5   2.0000      -1.029317       -28.0091
   6   2.0000      -0.885828       -24.1046
   7   2.0000      -0.724146       -19.7050
   8   2.0000      -0.694750       -18.9051
   9   2.0000      -0.626554       -17.0494
  10   2.0000      -0.575132       -15.6501
  11   2.0000      -0.548764       -14.9326
  12   2.0000      -0.517674       -14.0866
  13   2.0000      -0.393104       -10.6969
  14   2.0000      -0.347934        -9.4678
  15   0.0000       0.118965         3.2372
  16   0.0000       0.284236         7.7345
  17   0.0000       0.519585        14.1386
  18   0.0000       0.578372        15.7383
  19   0.0000       0.617016        16.7899

MULLIKEN ATOMIC CHARGES
-----------------------
   0 C :    0.170364
   1 O :   -0.359697
   2 C :   -0.160835
   3 C :   -0.243791
   4 H :    0.154875
   5 H :    0.116909
   6 H :    0.169171
   7 H :    0.153003
Sum of atomic charges:   -0.0000000

LOEWDIN ATOMIC CHARGES
----------------------
   0 C :    0.145998
   1 O :   -0.256692
   2 C :   -0.132684
   3 C :   -0.132481
   4 H :    0.094186
   5 H :    0.071634
   6 H :    0.109105
   7 H :    0.100934

  Mayer bond orders larger than 0.100000
B(  0-C ,  1-O ) :   1.9131 B(  0-C ,  2-C ) :   1.0176 B(  0-C ,  4-H ) :   0.9081
B(  2-C ,  3-C ) :   1.9170 B(  2-C ,  5-H ) :   0.9716 B(  3-C ,  6-H ) :   0.9604
B(  3-C ,  7-H ) :   0.9688

-----------------------------------------------------------------------------
         ABSORPTION SPECTRUM VIA TRANSITION ELECTRIC DIPOLE MOMENTS
-----------------------------------------------------------------------------
State   Energy    Wavelength  fosc         T2        TX        TY        TZ
        (cm-1)      (nm)                 (au**2)    (au)      (au)      (au)
-----------------------------------------------------------------------------
   1   31544.9    317.0   0.000451156   0.00471   0.06628  -0.01346  -0.01156

Dispersion correction           -0.025898920
FINAL SINGLE POINT ENERGY      -189.278440118854

DIPOLE MOMENT
-------------
                                X             Y             Z
Electronic contribution:     -2.05474      -2.00289      -0.02032
Nuclear contribution   :      2.13622       2.98595      -0.03044
                        -----------------------------------------
Total Dipole Moment    :      0.08148       0.98307      -0.05075
                        -----------------------------------------
Magnitude (a.u.)       :      0.98774
Magnitude (Debye)      :      2.51064

Rotational constants in cm-1:     0.675765     0.216400     0.164163
Rotational constants in MHz : 20258.916550  6487.505124  4921.481642

                             ****ORCA TERMINATED NORMALLY****
TOTAL RUN TIME: 0 days 0 hours 0 minutes 10 seconds 314 msec
