                         Program Version 5.0.3 -  RELEASE  -
|  1> ! HF-3c
|  2> !TightSCF
|  3> %scf
|  4>  ConvForced true
|  5>  convergence tight
|  6>  MaxIter 500
|  7> end
|  8>
|  9> %tddft
| 10>  nroots 1
| 11> end
| 12>
| 13> # 	26589
| 14> * xyz 0 1
| 15> 		C   -0.658970  -0.444119   0.022021
| 16> 		O   -0.570165  -1.645888  -0.008989
| 17> 		C    0.608441   0.416095  -0.007581
| 18> 		C    1.920345  -0.090423  -0.000744
| 19> 		H   -1.661377   0.072439  -0.059928
| 20> 		H    0.413729   1.553621   0.005926
| 21> 		H    2.058204  -1.223667   0.066704
| 22> 		H    2.885041   0.392657  -0.035185
| 23> *
| 24>
| 25>                          ****END OF INPUT****

CARTESIAN COORDINATES (ANGSTROEM)
---------------------------------
  C     -0.658970   -0.444119    0.022021
  O     -0.570165   -1.645888   -0.008989
  C      0.608441    0.416095   -0.007581
  C      1.920345   -0.090423   -0.000744
  H     -1.661377    0.072439   -0.059928
  H      0.413729    1.553621    0.005926
  H      2.058204   -1.223667    0.066704
  H      2.885041    0.392657   -0.035185

 Total Charge           Charge          ....    0
 Multiplicity           Mult            ....    1
 Number of Electrons    NEL             ....   30
 Basis Dimension        Dim             ....   24

ORBITAL ENERGIES
----------------

  NO   OCC          E(Eh)            E(eV)
   0   2.0000     -20.364728      -554.1524
   1   2.0000     -11.296333      -307.3889
   2   2.0000     -11.181472      -304.2633
   3   2.0000     -11.177297      -304.1497
   4   2.0000      -1.403976       -38.2041
   5   2.0000      -1.032215       -28.0880
   6   2.0000      -0.873959       -23.7816
   7   2.0000      -0.745204       -20.2780
   8   2.0000      -0.674051       -18.3419
   9   2.0000      -0.604595       -16.4519
  10   2.0000      -0.587631       -15.9903
  11   2.0000      -0.535727       -14.5779
  12   2.0000      -0.506493       -13.7824
  13   2.0000      -0.408459       -11.1147
  14   2.0000      -0.369427       -10.0526
  15   0.0000       0.130435         3.5493
  16   0.0000       0.294518         8.0142
  17   0.0000       0.489572        13.3219
  18   0.0000       0.576111        15.6768
  19   0.0000       0.638189        17.3660

MULLIKEN ATOMIC CHARGES
-----------------------
   0 C :    0.162988
   1 O :   -0.355172
   2 C :   -0.158060
   3 C :   -0.215746
   4 H :    0.141749
   5 H :    0.131759
   6 H :    0.148422
   7 H :    0.144059
Sum of atomic charges:   -0.0000000

LOEWDIN ATOMIC CHARGES
----------------------
   0 C :    0.141727
   1 O :   -0.257638
   2 C :   -0.125898
   3 C :   -0.119535
   4 H :    0.080334
   5 H :    0.087188
   6 H :    0.100593
   7 H :    0.093229

  Mayer bond orders larger than 0.100000
B(  0-C ,  1-O ) :   1.9125 B(  0-C ,  2-C ) :   1.0116 B(  0-C ,  4-H ) :   0.9215
B(  2-C ,  3-C ) :   1.9443 B(  2-C ,  5-H ) :   0.9615 B(  3-C ,  6-H ) :   0.9612
B(  3-C ,  7-H ) :   0.9670

-----------------------------------------------------------------------------
         ABSORPTION SPECTRUM VIA TRANSITION ELECTRIC DIPOLE MOMENTS
-----------------------------------------------------------------------------
State   Energy    Wavelength  fosc         T2        TX        TY        TZ
        (cm-1)      (nm)                 (au**2)    (au)      (au)      (au)
-----------------------------------------------------------------------------
   1   32679.8    306.0   0.000069255   0.00070  -0.02626  -0.00265   0.00101

Dispersion correction           -0.024511558
FINAL SINGLE POINT ENERGY      -189.328654556502

DIPOLE MOMENT
-------------
                                X             Y             Z
Electronic contribution:     -2.08012      -1.63976       0.03459
Nuclear contribution   :      2.31216       2.53285      -0.02109
                        -----------------------------------------
Total Dipole Moment    :      0.23204       0.89309       0.01349
                        -----------------------------------------
Magnitude (a.u.)       :      0.92284
Magnitude (Debye)      :      2.34567

Rotational constants in cm-1:     0.718526     0.197897     0.155211
Rotational constants in MHz : 21540.874073  5932.795158  4653.111793

                             ****ORCA TERMINATED NORMALLY****
TOTAL RUN TIME: 0 days 0 hours 0 minutes 11 seconds 587 msec
