                         Program Version 5.0.3 -  RELEASE  -
|  1> ! HF-3c
|  2> !TightSCF
|  3> %scf
|  4>  ConvForced true
|  5>  convergence tight
|  6>  MaxIter 500
|  7> end
|  8>
|  9> %tddft
| 10>  nroots 1
| 11> end
| 12>
| 13> # 	22621
| 14> * xyz 0 1
| 15> 		C   -0.619457  -0.451201  -0.025608
| 16> 		O   -0.559283  -1.620093   0.020814
| 17> 		C    0.663092   0.427320   0.018394
| 18> 		C    1.836810  -0.123199  -0.005749
| 19> 		H   -1.586615   0.039195  -0.148389
| 20> 		H    0.492231   1.543286   0.119172
| 21> 		H    1.816536  -1.334460  -0.133359
| 22> 		H    2.717082   0.453420  -0.003887
| 23> *
| 24>
| 25>                          ****END OF INPUT****

CARTESIAN COORDINATES (ANGSTROEM)
---------------------------------
  C     -0.619457   -0.451201   -0.025608
  O     -0.559283   -1.620093    0.020814
  C      0.663092    0.427320    0.018394
  C      1.836810   -0.123199   -0.005749
  H     -1.586615    0.039195   -0.148389
  H      0.492231    1.543286    0.119172
  H      1.816536   -1.334460   -0.133359
  H      2.717082    0.453420   -0.003887

 Total Charge           Charge          ....    0
 Multiplicity           Mult            ....    1
 Number of Electrons    NEL             ....   30
 Basis Dimension        Dim             ....   24

ORBITAL ENERGIES
----------------

  NO   OCC          E(Eh)            E(eV)
   0   2.0000     -20.379537      -554.5554
   1   2.0000     -11.305150      -307.6288
   2   2.0000     -11.179524      -304.2103
   3   2.0000     -11.177911      -304.1664
   4   2.0000      -1.435532       -39.0628
   5   2.0000      -1.070960       -29.1423
   6   2.0000      -0.870474       -23.6868
   7   2.0000      -0.745431       -20.2842
   8   2.0000      -0.694153       -18.8889
   9   2.0000      -0.609808       -16.5937
  10   2.0000      -0.608510       -16.5584
  11   2.0000      -0.555792       -15.1239
  12   2.0000      -0.506927       -13.7942
  13   2.0000      -0.408851       -11.1254
  14   2.0000      -0.402722       -10.9586
  15   0.0000       0.156825         4.2674
  16   0.0000       0.314746         8.5647
  17   0.0000       0.486131        13.2283
  18   0.0000       0.570425        15.5220
  19   0.0000       0.609732        16.5917

MULLIKEN ATOMIC CHARGES
-----------------------
   0 C :    0.180274
   1 O :   -0.363741
   2 C :   -0.169931
   3 C :   -0.233762
   4 H :    0.137370
   5 H :    0.136873
   6 H :    0.168552
   7 H :    0.144363
Sum of atomic charges:    0.0000000

LOEWDIN ATOMIC CHARGES
----------------------
   0 C :    0.151031
   1 O :   -0.253461
   2 C :   -0.132320
   3 C :   -0.142156
   4 H :    0.071524
   5 H :    0.089486
   6 H :    0.124037
   7 H :    0.091859

  Mayer bond orders larger than 0.100000
B(  0-C ,  1-O ) :   1.9323 B(  0-C ,  2-C ) :   0.9755 B(  0-C ,  4-H ) :   0.9233
B(  2-C ,  3-C ) :   1.9833 B(  2-C ,  5-H ) :   0.9574 B(  3-C ,  6-H ) :   0.9441
B(  3-C ,  7-H ) :   0.9634

-----------------------------------------------------------------------------
         ABSORPTION SPECTRUM VIA TRANSITION ELECTRIC DIPOLE MOMENTS
-----------------------------------------------------------------------------
State   Energy    Wavelength  fosc         T2        TX        TY        TZ
        (cm-1)      (nm)                 (au**2)    (au)      (au)      (au)
-----------------------------------------------------------------------------
   1   35999.4    277.8   0.000050342   0.00046  -0.02028  -0.00159  -0.00682

Dispersion correction           -0.025719187
FINAL SINGLE POINT ENERGY      -189.314730158469

DIPOLE MOMENT
-------------
                                X             Y             Z
Electronic contribution:     -1.89694      -1.62108       0.09589
Nuclear contribution   :      2.06890       2.44713      -0.15650
                        -----------------------------------------
Total Dipole Moment    :      0.17195       0.82605      -0.06061
                        -----------------------------------------
Magnitude (a.u.)       :      0.84593
Magnitude (Debye)      :      2.15019

Rotational constants in cm-1:     0.771150     0.210010     0.165297
Rotational constants in MHz : 23118.505320  6295.934656  4955.481026

                             ****ORCA TERMINATED NORMALLY****
TOTAL RUN TIME: 0 days 0 hours 0 minutes 16 seconds 35 msec
