                         Program Version 5.0.3 -  RELEASE  -
|  1> ! HF-3c
|  2> !TightSCF
|  3> %scf
|  4>  ConvForced true
|  5>  convergence tight
|  6>  MaxIter 500
|  7> end
|  8>
|  9> %tddft
| 10>  nroots 1
| 11> end
| 12>
| 13> # 	3190
| 14> * xyz 0 1
| 15> 		C   -1.163224  -0.337220  -0.042357
| 16> 		O   -1.692040  -1.041615  -0.845232
| 17> 		C    0.012130   0.510229  -0.210355
| 18> 		C    1.233427   0.027771   0.192709
| 19> 		H   -1.603810  -0.347607   1.037814
| 20> 		H   -0.159141   1.302658  -0.842074
| 21> 		H    1.404136  -0.912729   0.791584
| 22> 		H    1.968558   0.734482  -0.054309
| 23> *
| 24>
| 25>                          ****END OF INPUT****

CARTESIAN COORDINATES (ANGSTROEM)
---------------------------------
  C     -1.163224   -0.337220   -0.042357
  O     -1.692040   -1.041615   -0.845232
  C      0.012130    0.510229   -0.210355
  C      1.233427    0.027771    0.192709
  H     -1.603810   -0.347607    1.037814
  H     -0.159141    1.302658   -0.842074
  H      1.404136   -0.912729    0.791584
  H      1.968558    0.734482   -0.054309

 Total Charge           Charge          ....    0
 Multiplicity           Mult            ....    1
 Number of Electrons    NEL             ....   30
 Basis Dimension        Dim             ....   24

ORBITAL ENERGIES
----------------

  NO   OCC          E(Eh)            E(eV)
   0   2.0000     -20.372224      -554.3564
   1   2.0000     -11.296482      -307.3929
   2   2.0000     -11.192146      -304.5538
   3   2.0000     -11.189091      -304.4706
   4   2.0000      -1.414964       -38.5031
   5   2.0000      -1.081815       -29.4377
   6   2.0000      -0.886788       -24.1307
   7   2.0000      -0.765049       -20.8180
   8   2.0000      -0.681360       -18.5407
   9   2.0000      -0.635330       -17.2882
  10   2.0000      -0.605664       -16.4810
  11   2.0000      -0.566052       -15.4031
  12   2.0000      -0.510420       -13.8892
  13   2.0000      -0.406734       -11.0678
  14   2.0000      -0.389428       -10.5969
  15   0.0000       0.172188         4.6855
  16   0.0000       0.223701         6.0872
  17   0.0000       0.557913        15.1816
  18   0.0000       0.597731        16.2651
  19   0.0000       0.666217        18.1287

MULLIKEN ATOMIC CHARGES
-----------------------
   0 C :    0.181199
   1 O :   -0.354158
   2 C :   -0.177666
   3 C :   -0.232779
   4 H :    0.126181
   5 H :    0.154674
   6 H :    0.156035
   7 H :    0.146513
Sum of atomic charges:    0.0000000

LOEWDIN ATOMIC CHARGES
----------------------
   0 C :    0.153553
   1 O :   -0.253156
   2 C :   -0.128260
   3 C :   -0.137070
   4 H :    0.067755
   5 H :    0.096678
   6 H :    0.107377
   7 H :    0.093123

  Mayer bond orders larger than 0.100000
B(  0-C ,  1-O ) :   1.9435 B(  0-C ,  2-C ) :   0.9986 B(  0-C ,  4-H ) :   0.9100
B(  2-C ,  3-C ) :   1.9759 B(  2-C ,  5-H ) :   0.9543 B(  3-C ,  6-H ) :   0.9634
B(  3-C ,  7-H ) :   0.9653

-----------------------------------------------------------------------------
         ABSORPTION SPECTRUM VIA TRANSITION ELECTRIC DIPOLE MOMENTS
-----------------------------------------------------------------------------
State   Energy    Wavelength  fosc         T2        TX        TY        TZ
        (cm-1)      (nm)                 (au**2)    (au)      (au)      (au)
-----------------------------------------------------------------------------
   1   35627.0    280.7   0.000025698   0.00024   0.00171   0.01239  -0.00900

Dispersion correction           -0.025308355
FINAL SINGLE POINT ENERGY      -189.300579006833

DIPOLE MOMENT
-------------
                                X             Y             Z
Electronic contribution:     -2.49592      -1.08478      -1.13144
Nuclear contribution   :      3.12887       1.61857       1.75680
                        -----------------------------------------
Total Dipole Moment    :      0.63295       0.53379       0.62536
                        -----------------------------------------
Magnitude (a.u.)       :      1.03761
Magnitude (Debye)      :      2.63739

Rotational constants in cm-1:     1.020956     0.166291     0.159707
Rotational constants in MHz : 30607.479178  4985.281868  4787.903916

                             ****ORCA TERMINATED NORMALLY****
TOTAL RUN TIME: 0 days 0 hours 0 minutes 12 seconds 113 msec
