                         Program Version 5.0.3 -  RELEASE  -
|  1> ! HF-3c
|  2> !TightSCF
|  3> %scf
|  4>  ConvForced true
|  5>  convergence tight
|  6>  MaxIter 500
|  7> end
|  8>
|  9> %tddft
| 10>  nroots 1
| 11> end
| 12>
| 13> # 	31778
| 14> * xyz 0 1
| 15> 		C   -0.550415  -0.419717   0.034859
| 16> 		O   -0.574267  -1.610434  -0.023771
| 17> 		C    0.630272   0.369635  -0.057811
| 18> 		C    1.817560  -0.136969   0.052447
| 19> 		H   -1.658485   0.095831   0.286630
| 20> 		H    0.656946   1.602128  -0.173810
| 21> 		H    1.927856  -1.112431  -0.136104
| 22> 		H    2.565897   0.459537   0.041072
| 23> *
| 24>
| 25>                          ****END OF INPUT****

CARTESIAN COORDINATES (ANGSTROEM)
---------------------------------
  C     -0.550415   -0.419717    0.034859
  O     -0.574267   -1.610434   -0.023771
  C      0.630272    0.369635   -0.057811
  C      1.817560   -0.136969    0.052447
  H     -1.658485    0.095831    0.286630
  H      0.656946    1.602128   -0.173810
  H      1.927856   -1.112431   -0.136104
  H      2.565897    0.459537    0.041072

 Total Charge           Charge          ....    0
 Multiplicity           Mult            ....    1
 Number of Electrons    NEL             ....   30
 Basis Dimension        Dim             ....   24

ORBITAL ENERGIES
----------------

  NO   OCC          E(Eh)            E(eV)
   0   2.0000     -20.367246      -554.2209
   1   2.0000     -11.300832      -307.5113
   2   2.0000     -11.201275      -304.8022
   3   2.0000     -11.195398      -304.6423
   4   2.0000      -1.417147       -38.5625
   5   2.0000      -1.109417       -30.1888
   6   2.0000      -0.904190       -24.6043
   7   2.0000      -0.734612       -19.9898
   8   2.0000      -0.719240       -19.5715
   9   2.0000      -0.624781       -17.0012
  10   2.0000      -0.611742       -16.6463
  11   2.0000      -0.560439       -15.2503
  12   2.0000      -0.513250       -13.9663
  13   2.0000      -0.406792       -11.0694
  14   2.0000      -0.406289       -11.0557
  15   0.0000       0.128873         3.5068
  16   0.0000       0.317165         8.6305
  17   0.0000       0.468294        12.7429
  18   0.0000       0.526973        14.3397
  19   0.0000       0.719586        19.5809

MULLIKEN ATOMIC CHARGES
-----------------------
   0 C :    0.174456
   1 O :   -0.356625
   2 C :   -0.145444
   3 C :   -0.269811
   4 H :    0.133709
   5 H :    0.153456
   6 H :    0.163535
   7 H :    0.146724
Sum of atomic charges:    0.0000000

LOEWDIN ATOMIC CHARGES
----------------------
   0 C :    0.140121
   1 O :   -0.257245
   2 C :   -0.108397
   3 C :   -0.154098
   4 H :    0.080864
   5 H :    0.110667
   6 H :    0.101626
   7 H :    0.086462

  Mayer bond orders larger than 0.100000
B(  0-C ,  1-O ) :   1.9017 B(  0-C ,  2-C ) :   1.0414 B(  0-C ,  4-H ) :   0.9089
B(  2-C ,  3-C ) :   1.9437 B(  2-C ,  5-H ) :   0.9493 B(  3-C ,  6-H ) :   0.9580
B(  3-C ,  7-H ) :   0.9662

-----------------------------------------------------------------------------
         ABSORPTION SPECTRUM VIA TRANSITION ELECTRIC DIPOLE MOMENTS
-----------------------------------------------------------------------------
State   Energy    Wavelength  fosc         T2        TX        TY        TZ
        (cm-1)      (nm)                 (au**2)    (au)      (au)      (au)
-----------------------------------------------------------------------------
   1   32301.0    309.6   0.000108901   0.00111  -0.02600   0.00055  -0.02083

Dispersion correction           -0.026189984
FINAL SINGLE POINT ENERGY      -189.277589831357

DIPOLE MOMENT
-------------
                                X             Y             Z
Electronic contribution:     -1.92565      -1.74618      -0.01629
Nuclear contribution   :      2.11720       2.76825       0.01688
                        -----------------------------------------
Total Dipole Moment    :      0.19155       1.02207       0.00059
                        -----------------------------------------
Magnitude (a.u.)       :      1.03986
Magnitude (Debye)      :      2.64312

Rotational constants in cm-1:     0.806243     0.216547     0.171500
Rotational constants in MHz : 24170.551817  6491.922469  5141.425797

                             ****ORCA TERMINATED NORMALLY****
TOTAL RUN TIME: 0 days 0 hours 0 minutes 12 seconds 179 msec
