                         Program Version 5.0.3 -  RELEASE  -
|  1> ! B3LYP cc-pVDZ
|  2> !TightSCF
|  3> %scf
|  4>  ConvForced true
|  5>  convergence tight
|  6>  MaxIter 500
|  7> end
|  8>
|  9> %tddft
| 10>  nroots 1
| 11> end
| 12>
| 13> # 	27987
| 14> * xyz 0 1
| 15> 		C   -0.615262  -0.419356   0.002176
| 16> 		O   -0.603549  -1.669827   0.010231
| 17> 		C    0.624214   0.409486  -0.026021
| 18> 		C    1.887848  -0.072285   0.023362
| 19> 		H   -1.527931  -0.049574  -0.084812
| 20> 		H    0.576422   1.468898   0.143393
| 21> 		H    2.054565  -1.180246  -0.209247
| 22> 		H    2.841747   0.473998   0.004796
| 23> *
| 24>
| 25>                          ****END OF INPUT****

CARTESIAN COORDINATES (ANGSTROEM)
---------------------------------
  C     -0.615262   -0.419356    0.002176
  O     -0.603549   -1.669827    0.010231
  C      0.624214    0.409486   -0.026021
  C      1.887848   -0.072285    0.023362
  H     -1.527931   -0.049574   -0.084812
  H      0.576422    1.468898    0.143393
  H      2.054565   -1.180246   -0.209247
  H      2.841747    0.473998    0.004796

 Total Charge           Charge          ....    0
 Multiplicity           Mult            ....    1
 Number of Electrons    NEL             ....   30
 Basis Dimension        Dim             ....   76

ORBITAL ENERGIES
----------------

  NO   OCC          E(Eh)            E(eV)
   0   2.0000     -19.133749      -520.6558
   1   2.0000     -10.269178      -279.4385
   2   2.0000     -10.220943      -278.1260
   3   2.0000     -10.209929      -277.8263
   4   2.0000      -1.023396       -27.8480
   5   2.0000      -0.789531       -21.4842
   6   2.0000      -0.662150       -18.0180
   7   2.0000      -0.563633       -15.3372
   8   2.0000      -0.507744       -13.8164
   9   2.0000      -0.445516       -12.1231
  10   2.0000      -0.423274       -11.5179
  11   2.0000      -0.385181       -10.4813
  12   2.0000      -0.365506        -9.9459
  13   2.0000      -0.285428        -7.7669
  14   2.0000      -0.254265        -6.9189
  15   0.0000      -0.077379        -2.1056
  16   0.0000       0.049216         1.3392
  17   0.0000       0.072813         1.9813
  18   0.0000       0.094327         2.5668
  19   0.0000       0.125432         3.4132

MULLIKEN ATOMIC CHARGES
-----------------------
   0 C :    0.256262
   1 O :   -0.228484
   2 C :   -0.101266
   3 C :    0.028575
   4 H :   -0.040673
   5 H :   -0.007591
   6 H :    0.050375
   7 H :    0.042802
Sum of atomic charges:    0.0000000

LOEWDIN ATOMIC CHARGES
----------------------
   0 C :    0.011757
   1 O :   -0.037924
   2 C :   -0.078010
   3 C :    0.024258
   4 H :   -0.020459
   5 H :    0.025373
   6 H :    0.041272
   7 H :    0.033734

  Mayer bond orders larger than 0.100000
B(  0-C ,  1-O ) :   2.1388 B(  0-C ,  2-C ) :   1.0470 B(  0-C ,  4-H ) :   0.9527
B(  2-C ,  3-C ) :   1.9497 B(  2-C ,  5-H ) :   0.9434 B(  3-C ,  6-H ) :   0.9393
B(  3-C ,  7-H ) :   0.9484

-----------------------------------------------------------------------------
         ABSORPTION SPECTRUM VIA TRANSITION ELECTRIC DIPOLE MOMENTS
-----------------------------------------------------------------------------
State   Energy    Wavelength  fosc         T2        TX        TY        TZ
        (cm-1)      (nm)                 (au**2)    (au)      (au)      (au)
-----------------------------------------------------------------------------
   1   25561.2    391.2   0.000255155   0.00329  -0.05427  -0.01243  -0.01368

FINAL SINGLE POINT ENERGY      -191.669162557074

DIPOLE MOMENT
-------------
                                X             Y             Z
Electronic contribution:     -2.16875      -1.49119       0.11139
Nuclear contribution   :      2.54270       2.45759      -0.13743
                        -----------------------------------------
Total Dipole Moment    :      0.37394       0.96639      -0.02604
                        -----------------------------------------
Magnitude (a.u.)       :      1.03655
Magnitude (Debye)      :      2.63469

Rotational constants in cm-1:     0.773987     0.196603     0.157038
Rotational constants in MHz : 23203.557805  5894.008800  4707.867252

                             ****ORCA TERMINATED NORMALLY****
TOTAL RUN TIME: 0 days 0 hours 2 minutes 56 seconds 500 msec
