                         Program Version 5.0.3 -  RELEASE  -
|  1> ! B3LYP cc-pVDZ
|  2> !TightSCF
|  3> %scf
|  4>  ConvForced true
|  5>  convergence tight
|  6>  MaxIter 500
|  7> end
|  8>
|  9> %tddft
| 10>  nroots 1
| 11> end
| 12>
| 13> # 	26073
| 14> * xyz 0 1
| 15> 		C   -0.562155  -0.383458  -0.078701
| 16> 		O   -0.633275  -1.720258   0.036948
| 17> 		C    0.670058   0.424178   0.052965
| 18> 		C    1.872119  -0.072917  -0.021671
| 19> 		H   -1.341491   0.101032  -0.121283
| 20> 		H    0.290507   1.374144   0.258046
| 21> 		H    1.839065  -1.084859   0.035781
| 22> 		H    2.621555   0.529758  -0.191113
| 23> *
| 24>
| 25>                          ****END OF INPUT****

CARTESIAN COORDINATES (ANGSTROEM)
---------------------------------
  C     -0.562155   -0.383458   -0.078701
  O     -0.633275   -1.720258    0.036948
  C      0.670058    0.424178    0.052965
  C      1.872119   -0.072917   -0.021671
  H     -1.341491    0.101032   -0.121283
  H      0.290507    1.374144    0.258046
  H      1.839065   -1.084859    0.035781
  H      2.621555    0.529758   -0.191113

 Total Charge           Charge          ....    0
 Multiplicity           Mult            ....    1
 Number of Electrons    NEL             ....   30
 Basis Dimension        Dim             ....   76

ORBITAL ENERGIES
----------------

  NO   OCC          E(Eh)            E(eV)
   0   2.0000     -19.136271      -520.7244
   1   2.0000     -10.262890      -279.2674
   2   2.0000     -10.202009      -277.6108
   3   2.0000     -10.197499      -277.4881
   4   2.0000      -0.976802       -26.5801
   5   2.0000      -0.816828       -22.2270
   6   2.0000      -0.700239       -19.0545
   7   2.0000      -0.570732       -15.5304
   8   2.0000      -0.527779       -14.3616
   9   2.0000      -0.449775       -12.2390
  10   2.0000      -0.432017       -11.7558
  11   2.0000      -0.388293       -10.5660
  12   2.0000      -0.359174        -9.7736
  13   2.0000      -0.284311        -7.7365
  14   2.0000      -0.251832        -6.8527
  15   0.0000      -0.087620        -2.3843
  16   0.0000       0.040243         1.0951
  17   0.0000       0.078875         2.1463
  18   0.0000       0.105255         2.8641
  19   0.0000       0.142251         3.8708

MULLIKEN ATOMIC CHARGES
-----------------------
   0 C :    0.285418
   1 O :   -0.291890
   2 C :   -0.143718
   3 C :    0.269009
   4 H :   -0.065191
   5 H :   -0.040019
   6 H :   -0.000049
   7 H :   -0.013559
Sum of atomic charges:    0.0000000

LOEWDIN ATOMIC CHARGES
----------------------
   0 C :    0.081587
   1 O :   -0.114562
   2 C :   -0.047099
   3 C :    0.071360
   4 H :   -0.041071
   5 H :    0.019372
   6 H :    0.024549
   7 H :    0.005864

  Mayer bond orders larger than 0.100000
B(  0-C ,  1-O ) :   2.0427 B(  0-C ,  2-C ) :   1.1393 B(  0-C ,  4-H ) :   0.9429
B(  2-C ,  3-C ) :   1.9487 B(  2-C ,  5-H ) :   0.9585 B(  3-C ,  6-H ) :   0.9059
B(  3-C ,  7-H ) :   0.9326

-----------------------------------------------------------------------------
         ABSORPTION SPECTRUM VIA TRANSITION ELECTRIC DIPOLE MOMENTS
-----------------------------------------------------------------------------
State   Energy    Wavelength  fosc         T2        TX        TY        TZ
        (cm-1)      (nm)                 (au**2)    (au)      (au)      (au)
-----------------------------------------------------------------------------
   1   22427.7    445.9   0.000093727   0.00138  -0.03440  -0.00464  -0.01307

FINAL SINGLE POINT ENERGY      -191.621838368268

DIPOLE MOMENT
-------------
                                X             Y             Z
Electronic contribution:     -1.63084      -1.51902      -0.03728
Nuclear contribution   :      2.04122       2.65092      -0.01708
                        -----------------------------------------
Total Dipole Moment    :      0.41038       1.13190      -0.05435
                        -----------------------------------------
Magnitude (a.u.)       :      1.20522
Magnitude (Debye)      :      3.06343

Rotational constants in cm-1:     0.778051     0.197611     0.158341
Rotational constants in MHz : 23325.388922  5924.215897  4746.956504

                             ****ORCA TERMINATED NORMALLY****
TOTAL RUN TIME: 0 days 0 hours 3 minutes 21 seconds 115 msec
