                         Program Version 5.0.3 -  RELEASE  -
|  1> ! HF-3c
|  2> !TightSCF
|  3> %scf
|  4>  ConvForced true
|  5>  convergence tight
|  6>  MaxIter 500
|  7> end
|  8>
|  9> %tddft
| 10>  nroots 1
| 11> end
| 12>
| 13> # 	4501
| 14> * xyz 0 1
| 15> 		C   -1.247440  -0.337513  -0.052936
| 16> 		O   -1.279596  -1.593168   0.164724
| 17> 		C    0.013760   0.503022   0.076029
| 18> 		C    1.152654   0.023375   0.008614
| 19> 		H   -2.056529   0.245429  -0.156601
| 20> 		H   -0.139199   1.628855   0.179971
| 21> 		H    1.418486  -1.009159  -0.295595
| 22> 		H    2.216992   0.575228   0.088273
| 23> *
| 24>
| 25>                          ****END OF INPUT****

CARTESIAN COORDINATES (ANGSTROEM)
---------------------------------
  C     -1.247440   -0.337513   -0.052936
  O     -1.279596   -1.593168    0.164724
  C      0.013760    0.503022    0.076029
  C      1.152654    0.023375    0.008614
  H     -2.056529    0.245429   -0.156601
  H     -0.139199    1.628855    0.179971
  H      1.418486   -1.009159   -0.295595
  H      2.216992    0.575228    0.088273

 Total Charge           Charge          ....    0
 Multiplicity           Mult            ....    1
 Number of Electrons    NEL             ....   30
 Basis Dimension        Dim             ....   24

ORBITAL ENERGIES
----------------

  NO   OCC          E(Eh)            E(eV)
   0   2.0000     -20.362574      -554.0938
   1   2.0000     -11.289304      -307.1976
   2   2.0000     -11.193167      -304.5816
   3   2.0000     -11.189068      -304.4700
   4   2.0000      -1.360588       -37.0235
   5   2.0000      -1.095181       -29.8014
   6   2.0000      -0.902275       -24.5521
   7   2.0000      -0.749411       -20.3925
   8   2.0000      -0.689414       -18.7599
   9   2.0000      -0.619330       -16.8528
  10   2.0000      -0.585381       -15.9290
  11   2.0000      -0.520004       -14.1500
  12   2.0000      -0.498881       -13.5752
  13   2.0000      -0.417930       -11.3725
  14   2.0000      -0.410111       -11.1597
  15   0.0000       0.134232         3.6526
  16   0.0000       0.311340         8.4720
  17   0.0000       0.466448        12.6927
  18   0.0000       0.572283        15.5726
  19   0.0000       0.638080        17.3630

MULLIKEN ATOMIC CHARGES
-----------------------
   0 C :    0.144561
   1 O :   -0.328130
   2 C :   -0.188564
   3 C :   -0.212231
   4 H :    0.140537
   5 H :    0.148154
   6 H :    0.150525
   7 H :    0.145148
Sum of atomic charges:   -0.0000000

LOEWDIN ATOMIC CHARGES
----------------------
   0 C :    0.149388
   1 O :   -0.251576
   2 C :   -0.143449
   3 C :   -0.124676
   4 H :    0.069938
   5 H :    0.099818
   6 H :    0.098505
   7 H :    0.102051

  Mayer bond orders larger than 0.100000
B(  0-C ,  1-O ) :   1.9209 B(  0-C ,  2-C ) :   1.0039 B(  0-C ,  4-H ) :   0.9408
B(  2-C ,  3-C ) :   1.9852 B(  2-C ,  5-H ) :   0.9466 B(  3-C ,  6-H ) :   0.9543
B(  3-C ,  7-H ) :   0.9537

-----------------------------------------------------------------------------
         ABSORPTION SPECTRUM VIA TRANSITION ELECTRIC DIPOLE MOMENTS
-----------------------------------------------------------------------------
State   Energy    Wavelength  fosc         T2        TX        TY        TZ
        (cm-1)      (nm)                 (au**2)    (au)      (au)      (au)
-----------------------------------------------------------------------------
   1   29562.9    338.3   0.000044679   0.00050   0.01946   0.01041   0.00322

Dispersion correction           -0.025376373
FINAL SINGLE POINT ENERGY      -189.318040642279

DIPOLE MOMENT
-------------
                                X             Y             Z
Electronic contribution:     -2.29083      -1.82289       0.18150
Nuclear contribution   :      2.67542       2.79059      -0.36037
                        -----------------------------------------
Total Dipole Moment    :      0.38459       0.96770      -0.17888
                        -----------------------------------------
Magnitude (a.u.)       :      1.05657
Magnitude (Debye)      :      2.68559

Rotational constants in cm-1:     0.784703     0.197909     0.159442
Rotational constants in MHz : 23524.817548  5933.149691  4779.963427

                             ****ORCA TERMINATED NORMALLY****
TOTAL RUN TIME: 0 days 0 hours 0 minutes 16 seconds 11 msec
