                         Program Version 5.0.3 -  RELEASE  -
|  1> ! HF-3c
|  2> !TightSCF
|  3> %scf
|  4>  ConvForced true
|  5>  convergence tight
|  6>  MaxIter 500
|  7> end
|  8>
|  9> %tddft
| 10>  nroots 1
| 11> end
| 12>
| 13> # 	26423
| 14> * xyz 0 1
| 15> 		C   -0.527278  -0.395651  -0.033560
| 16> 		O   -0.585130  -1.619240   0.007858
| 17> 		C    0.579889   0.380896   0.001510
| 18> 		C    1.818606  -0.151410   0.017045
| 19> 		H   -1.302229   0.092899   0.178927
| 20> 		H    0.479961   1.523202  -0.016797
| 21> 		H    2.022356  -1.168807  -0.071195
| 22> 		H    2.757233   0.500235  -0.041135
| 23> *
| 24>
| 25>                          ****END OF INPUT****

CARTESIAN COORDINATES (ANGSTROEM)
---------------------------------
  C     -0.527278   -0.395651   -0.033560
  O     -0.585130   -1.619240    0.007858
  C      0.579889    0.380896    0.001510
  C      1.818606   -0.151410    0.017045
  H     -1.302229    0.092899    0.178927
  H      0.479961    1.523202   -0.016797
  H      2.022356   -1.168807   -0.071195
  H      2.757233    0.500235   -0.041135

 Total Charge           Charge          ....    0
 Multiplicity           Mult            ....    1
 Number of Electrons    NEL             ....   30
 Basis Dimension        Dim             ....   24

ORBITAL ENERGIES
----------------

  NO   OCC          E(Eh)            E(eV)
   0   2.0000     -20.357988      -553.9690
   1   2.0000     -11.296962      -307.4060
   2   2.0000     -11.202306      -304.8302
   3   2.0000     -11.194201      -304.6097
   4   2.0000      -1.393696       -37.9244
   5   2.0000      -1.099013       -29.9057
   6   2.0000      -0.936664       -25.4879
   7   2.0000      -0.771820       -21.0023
   8   2.0000      -0.714772       -19.4499
   9   2.0000      -0.625391       -17.0177
  10   2.0000      -0.585787       -15.9401
  11   2.0000      -0.551496       -15.0070
  12   2.0000      -0.529354       -14.4045
  13   2.0000      -0.427810       -11.6413
  14   2.0000      -0.384333       -10.4582
  15   0.0000       0.105815         2.8794
  16   0.0000       0.322685         8.7807
  17   0.0000       0.530738        14.4421
  18   0.0000       0.642175        17.4745
  19   0.0000       0.693283        18.8652

MULLIKEN ATOMIC CHARGES
-----------------------
   0 C :    0.109098
   1 O :   -0.335724
   2 C :   -0.181201
   3 C :   -0.187267
   4 H :    0.139417
   5 H :    0.151668
   6 H :    0.156157
   7 H :    0.147853
Sum of atomic charges:   -0.0000000

LOEWDIN ATOMIC CHARGES
----------------------
   0 C :    0.116184
   1 O :   -0.251119
   2 C :   -0.142711
   3 C :   -0.085153
   4 H :    0.062287
   5 H :    0.102846
   6 H :    0.097259
   7 H :    0.100407

  Mayer bond orders larger than 0.100000
B(  0-C ,  1-O ) :   1.8501 B(  0-C ,  2-C ) :   1.1014 B(  0-C ,  4-H ) :   0.9390
B(  1-O ,  3-C ) :   0.1091 B(  2-C ,  3-C ) :   1.8848 B(  2-C ,  5-H ) :   0.9536
B(  3-C ,  6-H ) :   0.9627 B(  3-C ,  7-H ) :   0.9648

-----------------------------------------------------------------------------
         ABSORPTION SPECTRUM VIA TRANSITION ELECTRIC DIPOLE MOMENTS
-----------------------------------------------------------------------------
State   Energy    Wavelength  fosc         T2        TX        TY        TZ
        (cm-1)      (nm)                 (au**2)    (au)      (au)      (au)
-----------------------------------------------------------------------------
   1   28863.6    346.5   0.000021430   0.00024  -0.01131  -0.00194  -0.01062

Dispersion correction           -0.026399195
FINAL SINGLE POINT ENERGY      -189.302806949552

DIPOLE MOMENT
-------------
                                X             Y             Z
Electronic contribution:     -1.98703      -1.71189      -0.06811
Nuclear contribution   :      2.55471       2.67583       0.04713
                        -----------------------------------------
Total Dipole Moment    :      0.56768       0.96394      -0.02098
                        -----------------------------------------
Magnitude (a.u.)       :      1.11888
Magnitude (Debye)      :      2.84396

Rotational constants in cm-1:     0.788029     0.219832     0.172084
Rotational constants in MHz : 23624.514199  6590.393715  5158.950705

                             ****ORCA TERMINATED NORMALLY****
TOTAL RUN TIME: 0 days 0 hours 0 minutes 16 seconds 36 msec
