                         Program Version 5.0.3 -  RELEASE  -
|  1> ! HF-3c
|  2> !TightSCF
|  3> %scf
|  4>  ConvForced true
|  5>  convergence tight
|  6>  MaxIter 500
|  7> end
|  8>
|  9> %tddft
| 10>  nroots 1
| 11> end
| 12>
| 13> # 	13483
| 14> * xyz 0 1
| 15> 		C   -1.188385  -0.264801   0.029706
| 16> 		O   -1.249291  -1.484402  -0.306061
| 17> 		C    0.052482   0.526905  -0.112161
| 18> 		C    1.222478  -0.001106   0.050669
| 19> 		H   -2.064943   0.269816   0.267748
| 20> 		H   -0.200482   1.633552  -0.168829
| 21> 		H    1.223079  -1.260979   0.201216
| 22> 		H    2.202454   0.567764   0.057598
| 23> *
| 24>
| 25>                          ****END OF INPUT****

CARTESIAN COORDINATES (ANGSTROEM)
---------------------------------
  C     -1.188385   -0.264801    0.029706
  O     -1.249291   -1.484402   -0.306061
  C      0.052482    0.526905   -0.112161
  C      1.222478   -0.001106    0.050669
  H     -2.064943    0.269816    0.267748
  H     -0.200482    1.633552   -0.168829
  H      1.223079   -1.260979    0.201216
  H      2.202454    0.567764    0.057598

 Total Charge           Charge          ....    0
 Multiplicity           Mult            ....    1
 Number of Electrons    NEL             ....   30
 Basis Dimension        Dim             ....   24

ORBITAL ENERGIES
----------------

  NO   OCC          E(Eh)            E(eV)
   0   2.0000     -20.346209      -553.6485
   1   2.0000     -11.279963      -306.9434
   2   2.0000     -11.186953      -304.4125
   3   2.0000     -11.183310      -304.3133
   4   2.0000      -1.359557       -36.9954
   5   2.0000      -1.077333       -29.3157
   6   2.0000      -0.889485       -24.2041
   7   2.0000      -0.732300       -19.9269
   8   2.0000      -0.681735       -18.5509
   9   2.0000      -0.603991       -16.4354
  10   2.0000      -0.579712       -15.7748
  11   2.0000      -0.512721       -13.9519
  12   2.0000      -0.491923       -13.3859
  13   2.0000      -0.414985       -11.2923
  14   2.0000      -0.391875       -10.6635
  15   0.0000       0.137198         3.7333
  16   0.0000       0.301836         8.2134
  17   0.0000       0.460344        12.5266
  18   0.0000       0.552543        15.0355
  19   0.0000       0.627243        17.0681

MULLIKEN ATOMIC CHARGES
-----------------------
   0 C :    0.141575
   1 O :   -0.345084
   2 C :   -0.187809
   3 C :   -0.200288
   4 H :    0.139370
   5 H :    0.140422
   6 H :    0.164487
   7 H :    0.147327
Sum of atomic charges:    0.0000000

LOEWDIN ATOMIC CHARGES
----------------------
   0 C :    0.141463
   1 O :   -0.267619
   2 C :   -0.145654
   3 C :   -0.118711
   4 H :    0.073746
   5 H :    0.093058
   6 H :    0.123908
   7 H :    0.099809

  Mayer bond orders larger than 0.100000
B(  0-C ,  1-O ) :   1.8991 B(  0-C ,  2-C ) :   1.0296 B(  0-C ,  4-H ) :   0.9371
B(  2-C ,  3-C ) :   1.9568 B(  2-C ,  5-H ) :   0.9504 B(  3-C ,  6-H ) :   0.9436
B(  3-C ,  7-H ) :   0.9595

-----------------------------------------------------------------------------
         ABSORPTION SPECTRUM VIA TRANSITION ELECTRIC DIPOLE MOMENTS
-----------------------------------------------------------------------------
State   Energy    Wavelength  fosc         T2        TX        TY        TZ
        (cm-1)      (nm)                 (au**2)    (au)      (au)      (au)
-----------------------------------------------------------------------------
   1   30144.7    331.7   0.000020589   0.00022   0.01495   0.00113  -0.00004

Dispersion correction           -0.025677687
FINAL SINGLE POINT ENERGY      -189.322988241260

DIPOLE MOMENT
-------------
                                X             Y             Z
Electronic contribution:     -1.88400      -1.54164      -0.36507
Nuclear contribution   :      2.26460       2.41668       0.66157
                        -----------------------------------------
Total Dipole Moment    :      0.38060       0.87503       0.29650
                        -----------------------------------------
Magnitude (a.u.)       :      0.99922
Magnitude (Debye)      :      2.53983

Rotational constants in cm-1:     0.755358     0.204700     0.163680
Rotational constants in MHz : 22645.067615  6136.747209  4907.006224

                             ****ORCA TERMINATED NORMALLY****
TOTAL RUN TIME: 0 days 0 hours 0 minutes 14 seconds 982 msec
