                         Program Version 5.0.3 -  RELEASE  -
|  1> ! HF-3c
|  2> !TightSCF
|  3> %scf
|  4>  ConvForced true
|  5>  convergence tight
|  6>  MaxIter 500
|  7> end
|  8>
|  9> %tddft
| 10>  nroots 1
| 11> end
| 12>
| 13> # 	1738
| 14> * xyz 0 1
| 15> 		C   -1.153166  -0.357113   0.142644
| 16> 		O   -2.129364  -0.243156   0.877624
| 17> 		C    0.104657   0.394206   0.305260
| 18> 		C    1.151091   0.116887  -0.345153
| 19> 		H   -1.306386  -1.147261  -0.820805
| 20> 		H    0.015516   1.090393   1.160321
| 21> 		H    1.053422  -0.525121  -1.304097
| 22> 		H    2.201574   0.646890  -0.025115
| 23> *
| 24>
| 25>                          ****END OF INPUT****

CARTESIAN COORDINATES (ANGSTROEM)
---------------------------------
  C     -1.153166   -0.357113    0.142644
  O     -2.129364   -0.243156    0.877624
  C      0.104657    0.394206    0.305260
  C      1.151091    0.116887   -0.345153
  H     -1.306386   -1.147261   -0.820805
  H      0.015516    1.090393    1.160321
  H      1.053422   -0.525121   -1.304097
  H      2.201574    0.646890   -0.025115

 Total Charge           Charge          ....    0
 Multiplicity           Mult            ....    1
 Number of Electrons    NEL             ....   30
 Basis Dimension        Dim             ....   24

ORBITAL ENERGIES
----------------

  NO   OCC          E(Eh)            E(eV)
   0   2.0000     -20.348621      -553.7141
   1   2.0000     -11.281137      -306.9753
   2   2.0000     -11.196003      -304.6587
   3   2.0000     -11.193105      -304.5799
   4   2.0000      -1.380752       -37.5722
   5   2.0000      -1.100514       -29.9465
   6   2.0000      -0.856885       -23.3170
   7   2.0000      -0.748526       -20.3684
   8   2.0000      -0.646246       -17.5852
   9   2.0000      -0.632461       -17.2101
  10   2.0000      -0.558912       -15.2088
  11   2.0000      -0.535229       -14.5643
  12   2.0000      -0.516287       -14.0489
  13   2.0000      -0.408667       -11.1204
  14   2.0000      -0.392388       -10.6774
  15   0.0000       0.146124         3.9762
  16   0.0000       0.322184         8.7671
  17   0.0000       0.482307        13.1242
  18   0.0000       0.496042        13.4980
  19   0.0000       0.539448        14.6791

MULLIKEN ATOMIC CHARGES
-----------------------
   0 C :    0.178821
   1 O :   -0.361119
   2 C :   -0.194792
   3 C :   -0.210891
   4 H :    0.125124
   5 H :    0.159591
   6 H :    0.148211
   7 H :    0.155055
Sum of atomic charges:    0.0000000

LOEWDIN ATOMIC CHARGES
----------------------
   0 C :    0.147949
   1 O :   -0.271046
   2 C :   -0.144877
   3 C :   -0.128165
   4 H :    0.075620
   5 H :    0.105214
   6 H :    0.102600
   7 H :    0.112704

  Mayer bond orders larger than 0.100000
B(  0-C ,  1-O ) :   1.9075 B(  0-C ,  2-C ) :   1.0192 B(  0-C ,  4-H ) :   0.9119
B(  2-C ,  3-C ) :   1.9660 B(  2-C ,  5-H ) :   0.9450 B(  3-C ,  6-H ) :   0.9539
B(  3-C ,  7-H ) :   0.9519

-----------------------------------------------------------------------------
         ABSORPTION SPECTRUM VIA TRANSITION ELECTRIC DIPOLE MOMENTS
-----------------------------------------------------------------------------
State   Energy    Wavelength  fosc         T2        TX        TY        TZ
        (cm-1)      (nm)                 (au**2)    (au)      (au)      (au)
-----------------------------------------------------------------------------
   1   32283.0    309.8   0.000063517   0.00065  -0.01755   0.00165  -0.01836

Dispersion correction           -0.025337787
FINAL SINGLE POINT ENERGY      -189.308747519794

DIPOLE MOMENT
-------------
                                X             Y             Z
Electronic contribution:     -2.81130      -0.21068       1.24162
Nuclear contribution   :      3.88471       0.19004      -1.87499
                        -----------------------------------------
Total Dipole Moment    :      1.07340      -0.02064      -0.63336
                        -----------------------------------------
Magnitude (a.u.)       :      1.24650
Magnitude (Debye)      :      3.16836

Rotational constants in cm-1:     1.513269     0.157169     0.142859
Rotational constants in MHz : 45366.655910  4711.820359  4282.804725

                             ****ORCA TERMINATED NORMALLY****
TOTAL RUN TIME: 0 days 0 hours 0 minutes 16 seconds 19 msec
