                         Program Version 5.0.3 -  RELEASE  -
|  1> ! B3LYP cc-pVDZ
|  2> !TightSCF
|  3> %scf
|  4>  ConvForced true
|  5>  convergence tight
|  6>  MaxIter 500
|  7> end
|  8>
|  9> %tddft
| 10>  nroots 1
| 11> end
| 12>
| 13> # 	3735
| 14> * xyz 0 1
| 15> 		C   -1.160585  -0.434387   0.057047
| 16> 		O   -1.962870  -0.767814   0.915990
| 17> 		C    0.016036   0.351425   0.354262
| 18> 		C    1.155767   0.078803  -0.211938
| 19> 		H   -1.471683  -0.537709  -1.078383
| 20> 		H   -0.073101   1.324261   0.956020
| 21> 		H    1.458912  -0.719648  -0.919403
| 22> 		H    2.045439   0.705843  -0.082391
| 23> *
| 24>
| 25>                          ****END OF INPUT****

CARTESIAN COORDINATES (ANGSTROEM)
---------------------------------
  C     -1.160585   -0.434387    0.057047
  O     -1.962870   -0.767814    0.915990
  C      0.016036    0.351425    0.354262
  C      1.155767    0.078803   -0.211938
  H     -1.471683   -0.537709   -1.078383
  H     -0.073101    1.324261    0.956020
  H      1.458912   -0.719648   -0.919403
  H      2.045439    0.705843   -0.082391

 Total Charge           Charge          ....    0
 Multiplicity           Mult            ....    1
 Number of Electrons    NEL             ....   30
 Basis Dimension        Dim             ....   76

ORBITAL ENERGIES
----------------

  NO   OCC          E(Eh)            E(eV)
   0   2.0000     -19.141106      -520.8560
   1   2.0000     -10.281887      -279.7844
   2   2.0000     -10.210448      -277.8404
   3   2.0000     -10.209305      -277.8093
   4   2.0000      -1.043054       -28.3829
   5   2.0000      -0.809135       -22.0177
   6   2.0000      -0.648997       -17.6601
   7   2.0000      -0.556370       -15.1396
   8   2.0000      -0.482616       -13.1326
   9   2.0000      -0.474952       -12.9241
  10   2.0000      -0.435211       -11.8427
  11   2.0000      -0.381264       -10.3747
  12   2.0000      -0.369574       -10.0566
  13   2.0000      -0.296199        -8.0600
  14   2.0000      -0.254949        -6.9375
  15   0.0000      -0.057094        -1.5536
  16   0.0000       0.010904         0.2967
  17   0.0000       0.079339         2.1589
  18   0.0000       0.081169         2.2087
  19   0.0000       0.105190         2.8624

MULLIKEN ATOMIC CHARGES
-----------------------
   0 C :    0.153446
   1 O :   -0.194640
   2 C :   -0.070019
   3 C :    0.021154
   4 H :    0.001745
   5 H :    0.039752
   6 H :    0.024324
   7 H :    0.024238
Sum of atomic charges:   -0.0000000

LOEWDIN ATOMIC CHARGES
----------------------
   0 C :   -0.033704
   1 O :   -0.004385
   2 C :   -0.071698
   3 C :   -0.017218
   4 H :    0.005081
   5 H :    0.058425
   6 H :    0.031846
   7 H :    0.031652

  Mayer bond orders larger than 0.100000
B(  0-C ,  1-O ) :   2.1747 B(  0-C ,  2-C ) :   1.0264 B(  0-C ,  4-H ) :   0.9122
B(  2-C ,  3-C ) :   1.9940 B(  2-C ,  5-H ) :   0.9307 B(  3-C ,  6-H ) :   0.9575
B(  3-C ,  7-H ) :   0.9394

-----------------------------------------------------------------------------
         ABSORPTION SPECTRUM VIA TRANSITION ELECTRIC DIPOLE MOMENTS
-----------------------------------------------------------------------------
State   Energy    Wavelength  fosc         T2        TX        TY        TZ
        (cm-1)      (nm)                 (au**2)    (au)      (au)      (au)
-----------------------------------------------------------------------------
   1   29581.4    338.0   0.000522973   0.00582   0.07325   0.00054   0.02131

FINAL SINGLE POINT ENERGY      -191.654712085008

DIPOLE MOMENT
-------------
                                X             Y             Z
Electronic contribution:     -2.93946      -1.06200       1.52349
Nuclear contribution   :      3.77794       1.49013      -2.11069
                        -----------------------------------------
Total Dipole Moment    :      0.83848       0.42813      -0.58720
                        -----------------------------------------
Magnitude (a.u.)       :      1.10958
Magnitude (Debye)      :      2.82032

Rotational constants in cm-1:     1.330213     0.159742     0.150750
Rotational constants in MHz : 39878.771561  4788.956934  4519.374651

                             ****ORCA TERMINATED NORMALLY****
TOTAL RUN TIME: 0 days 0 hours 3 minutes 16 seconds 793 msec
