                         Program Version 5.0.3 -  RELEASE  -
|  1> ! B3LYP cc-pVDZ
|  2> !TightSCF
|  3> %scf
|  4>  ConvForced true
|  5>  convergence tight
|  6>  MaxIter 500
|  7> end
|  8>
|  9> %tddft
| 10>  nroots 1
| 11> end
| 12>
| 13> # 	23662
| 14> * xyz 0 1
| 15> 		C   -0.565191  -0.433736   0.047695
| 16> 		O   -0.577659  -1.665254  -0.019515
| 17> 		C    0.604627   0.431558  -0.038898
| 18> 		C    1.838441  -0.106278   0.042325
| 19> 		H   -1.489356   0.202579  -0.014156
| 20> 		H    0.657593   1.624500  -0.079536
| 21> 		H    1.806680  -1.324289  -0.140397
| 22> 		H    2.819568   0.463080  -0.070849
| 23> *
| 24>
| 25>                          ****END OF INPUT****

CARTESIAN COORDINATES (ANGSTROEM)
---------------------------------
  C     -0.565191   -0.433736    0.047695
  O     -0.577659   -1.665254   -0.019515
  C      0.604627    0.431558   -0.038898
  C      1.838441   -0.106278    0.042325
  H     -1.489356    0.202579   -0.014156
  H      0.657593    1.624500   -0.079536
  H      1.806680   -1.324289   -0.140397
  H      2.819568    0.463080   -0.070849

 Total Charge           Charge          ....    0
 Multiplicity           Mult            ....    1
 Number of Electrons    NEL             ....   30
 Basis Dimension        Dim             ....   76

ORBITAL ENERGIES
----------------

  NO   OCC          E(Eh)            E(eV)
   0   2.0000     -19.144638      -520.9521
   1   2.0000     -10.282124      -279.7908
   2   2.0000     -10.228764      -278.3388
   3   2.0000     -10.214581      -277.9529
   4   2.0000      -1.037913       -28.2431
   5   2.0000      -0.794119       -21.6091
   6   2.0000      -0.655638       -17.8408
   7   2.0000      -0.525279       -14.2936
   8   2.0000      -0.502210       -13.6658
   9   2.0000      -0.443008       -12.0549
  10   2.0000      -0.415141       -11.2966
  11   2.0000      -0.397286       -10.8107
  12   2.0000      -0.356445        -9.6994
  13   2.0000      -0.287741        -7.8298
  14   2.0000      -0.261936        -7.1276
  15   0.0000      -0.079258        -2.1567
  16   0.0000       0.051644         1.4053
  17   0.0000       0.054015         1.4698
  18   0.0000       0.077117         2.0985
  19   0.0000       0.110729         3.0131

MULLIKEN ATOMIC CHARGES
-----------------------
   0 C :    0.211726
   1 O :   -0.208297
   2 C :   -0.139541
   3 C :   -0.008626
   4 H :   -0.007966
   5 H :    0.025365
   6 H :    0.074334
   7 H :    0.053005
Sum of atomic charges:   -0.0000000

LOEWDIN ATOMIC CHARGES
----------------------
   0 C :   -0.027262
   1 O :   -0.020825
   2 C :   -0.106928
   3 C :    0.006571
   4 H :    0.000001
   5 H :    0.049861
   6 H :    0.058456
   7 H :    0.040127

  Mayer bond orders larger than 0.100000
B(  0-C ,  1-O ) :   2.1467 B(  0-C ,  2-C ) :   1.0526 B(  0-C ,  4-H ) :   0.9193
B(  2-C ,  3-C ) :   1.9276 B(  2-C ,  5-H ) :   0.9392 B(  3-C ,  6-H ) :   0.9195
B(  3-C ,  7-H ) :   0.9396

-----------------------------------------------------------------------------
         ABSORPTION SPECTRUM VIA TRANSITION ELECTRIC DIPOLE MOMENTS
-----------------------------------------------------------------------------
State   Energy    Wavelength  fosc         T2        TX        TY        TZ
        (cm-1)      (nm)                 (au**2)    (au)      (au)      (au)
-----------------------------------------------------------------------------
   1   27227.1    367.3   0.000309018   0.00374  -0.04763   0.00836  -0.03738

FINAL SINGLE POINT ENERGY      -191.657488665020

DIPOLE MOMENT
-------------
                                X             Y             Z
Electronic contribution:     -1.94835      -1.75237       0.24990
Nuclear contribution   :      2.39968       2.69401      -0.28600
                        -----------------------------------------
Total Dipole Moment    :      0.45133       0.94164      -0.03610
                        -----------------------------------------
Magnitude (a.u.)       :      1.04483
Magnitude (Debye)      :      2.65576

Rotational constants in cm-1:     0.743387     0.207761     0.162707
Rotational constants in MHz : 22286.173792  6228.525231  4877.843227

                             ****ORCA TERMINATED NORMALLY****
TOTAL RUN TIME: 0 days 0 hours 3 minutes 13 seconds 965 msec
