                         Program Version 5.0.3 -  RELEASE  -
|  1> ! B3LYP cc-pVDZ
|  2> !TightSCF
|  3> %scf
|  4>  ConvForced true
|  5>  convergence tight
|  6>  MaxIter 500
|  7> end
|  8>
|  9> %tddft
| 10>  nroots 1
| 11> end
| 12>
| 13> # 	12783
| 14> * xyz 0 1
| 15> 		C   -1.156803  -0.315568   0.049597
| 16> 		O   -1.219180  -1.492691  -0.097385
| 17> 		C    0.021226   0.495255  -0.025715
| 18> 		C    1.287276  -0.036468   0.078132
| 19> 		H   -2.211592   0.258750   0.022082
| 20> 		H   -0.157506   1.610218  -0.066270
| 21> 		H    1.405446  -1.160498   0.090306
| 22> 		H    2.095566   0.653485  -0.008246
| 23> *
| 24>
| 25>                          ****END OF INPUT****

CARTESIAN COORDINATES (ANGSTROEM)
---------------------------------
  C     -1.156803   -0.315568    0.049597
  O     -1.219180   -1.492691   -0.097385
  C      0.021226    0.495255   -0.025715
  C      1.287276   -0.036468    0.078132
  H     -2.211592    0.258750    0.022082
  H     -0.157506    1.610218   -0.066270
  H      1.405446   -1.160498    0.090306
  H      2.095566    0.653485   -0.008246

 Total Charge           Charge          ....    0
 Multiplicity           Mult            ....    1
 Number of Electrons    NEL             ....   30
 Basis Dimension        Dim             ....   76

ORBITAL ENERGIES
----------------

  NO   OCC          E(Eh)            E(eV)
   0   2.0000     -19.136123      -520.7204
   1   2.0000     -10.273357      -279.5523
   2   2.0000     -10.224534      -278.2237
   3   2.0000     -10.212176      -277.8874
   4   2.0000      -1.058396       -28.8004
   5   2.0000      -0.794159       -21.6102
   6   2.0000      -0.660127       -17.9630
   7   2.0000      -0.525389       -14.2966
   8   2.0000      -0.509318       -13.8592
   9   2.0000      -0.447159       -12.1678
  10   2.0000      -0.423267       -11.5177
  11   2.0000      -0.406150       -11.0519
  12   2.0000      -0.386607       -10.5201
  13   2.0000      -0.286656        -7.8003
  14   2.0000      -0.251374        -6.8402
  15   0.0000      -0.075977        -2.0674
  16   0.0000       0.060474         1.6456
  17   0.0000       0.063583         1.7302
  18   0.0000       0.084725         2.3055
  19   0.0000       0.116135         3.1602

MULLIKEN ATOMIC CHARGES
-----------------------
   0 C :    0.146524
   1 O :   -0.169309
   2 C :   -0.117832
   3 C :    0.072783
   4 H :   -0.033149
   5 H :    0.009629
   6 H :    0.058306
   7 H :    0.033047
Sum of atomic charges:   -0.0000000

LOEWDIN ATOMIC CHARGES
----------------------
   0 C :   -0.074398
   1 O :    0.016557
   2 C :   -0.082470
   3 C :    0.036411
   4 H :   -0.008736
   5 H :    0.038367
   6 H :    0.046778
   7 H :    0.027492

  Mayer bond orders larger than 0.100000
B(  0-C ,  1-O ) :   2.2041 B(  0-C ,  2-C ) :   1.0778 B(  0-C ,  4-H ) :   0.8987
B(  2-C ,  3-C ) :   1.9333 B(  2-C ,  5-H ) :   0.9408 B(  3-C ,  6-H ) :   0.9351
B(  3-C ,  7-H ) :   0.9397

-----------------------------------------------------------------------------
         ABSORPTION SPECTRUM VIA TRANSITION ELECTRIC DIPOLE MOMENTS
-----------------------------------------------------------------------------
State   Energy    Wavelength  fosc         T2        TX        TY        TZ
        (cm-1)      (nm)                 (au**2)    (au)      (au)      (au)
-----------------------------------------------------------------------------
   1   26303.6    380.2   0.000368300   0.00461   0.04986  -0.01039   0.04489

FINAL SINGLE POINT ENERGY      -191.676988145597

DIPOLE MOMENT
-------------
                                X             Y             Z
Electronic contribution:     -1.59507      -1.83142       0.01170
Nuclear contribution   :      2.15557       2.65266       0.05389
                        -----------------------------------------
Total Dipole Moment    :      0.56049       0.82125       0.06558
                        -----------------------------------------
Magnitude (a.u.)       :      0.99644
Magnitude (Debye)      :      2.53276

Rotational constants in cm-1:     0.773724     0.206902     0.163784
Rotational constants in MHz : 23195.660525  6202.771390  4910.129745

                             ****ORCA TERMINATED NORMALLY****
TOTAL RUN TIME: 0 days 0 hours 3 minutes 26 seconds 842 msec
