                         Program Version 5.0.3 -  RELEASE  -
|  1> ! HF-3c
|  2> !TightSCF
|  3> %scf
|  4>  ConvForced true
|  5>  convergence tight
|  6>  MaxIter 500
|  7> end
|  8>
|  9> %tddft
| 10>  nroots 1
| 11> end
| 12>
| 13> # 	12022
| 14> * xyz 0 1
| 15> 		C   -1.249534  -0.285886   0.003680
| 16> 		O   -1.231897  -1.516648   0.183605
| 17> 		C   -0.005980   0.495186   0.108140
| 18> 		C    1.220649  -0.063516  -0.015911
| 19> 		H   -2.280217   0.244324  -0.098237
| 20> 		H   -0.175250   1.567676   0.078583
| 21> 		H    1.507450  -1.060560  -0.201569
| 22> 		H    2.140509   0.612667  -0.091052
| 23> *
| 24>
| 25>                          ****END OF INPUT****

CARTESIAN COORDINATES (ANGSTROEM)
---------------------------------
  C     -1.249534   -0.285886    0.003680
  O     -1.231897   -1.516648    0.183605
  C     -0.005980    0.495186    0.108140
  C      1.220649   -0.063516   -0.015911
  H     -2.280217    0.244324   -0.098237
  H     -0.175250    1.567676    0.078583
  H      1.507450   -1.060560   -0.201569
  H      2.140509    0.612667   -0.091052

 Total Charge           Charge          ....    0
 Multiplicity           Mult            ....    1
 Number of Electrons    NEL             ....   30
 Basis Dimension        Dim             ....   24

ORBITAL ENERGIES
----------------

  NO   OCC          E(Eh)            E(eV)
   0   2.0000     -20.344613      -553.6051
   1   2.0000     -11.280346      -306.9538
   2   2.0000     -11.194315      -304.6128
   3   2.0000     -11.190527      -304.5097
   4   2.0000      -1.370887       -37.3037
   5   2.0000      -1.066882       -29.0313
   6   2.0000      -0.887020       -24.1370
   7   2.0000      -0.744787       -20.2667
   8   2.0000      -0.686977       -18.6936
   9   2.0000      -0.618044       -16.8178
  10   2.0000      -0.572141       -15.5687
  11   2.0000      -0.524074       -14.2608
  12   2.0000      -0.521066       -14.1789
  13   2.0000      -0.407353       -11.0847
  14   2.0000      -0.382858       -10.4181
  15   0.0000       0.125671         3.4197
  16   0.0000       0.298779         8.1302
  17   0.0000       0.502195        13.6654
  18   0.0000       0.615892        16.7593
  19   0.0000       0.661337        17.9959

MULLIKEN ATOMIC CHARGES
-----------------------
   0 C :    0.152464
   1 O :   -0.351509
   2 C :   -0.177412
   3 C :   -0.204955
   4 H :    0.140382
   5 H :    0.142724
   6 H :    0.155969
   7 H :    0.142337
Sum of atomic charges:    0.0000000

LOEWDIN ATOMIC CHARGES
----------------------
   0 C :    0.137026
   1 O :   -0.267604
   2 C :   -0.132692
   3 C :   -0.106341
   4 H :    0.083180
   5 H :    0.091159
   6 H :    0.098887
   7 H :    0.096384

  Mayer bond orders larger than 0.100000
B(  0-C ,  1-O ) :   1.8929 B(  0-C ,  2-C ) :   1.0414 B(  0-C ,  4-H ) :   0.9250
B(  2-C ,  3-C ) :   1.9349 B(  2-C ,  5-H ) :   0.9588 B(  3-C ,  6-H ) :   0.9633
B(  3-C ,  7-H ) :   0.9637

-----------------------------------------------------------------------------
         ABSORPTION SPECTRUM VIA TRANSITION ELECTRIC DIPOLE MOMENTS
-----------------------------------------------------------------------------
State   Energy    Wavelength  fosc         T2        TX        TY        TZ
        (cm-1)      (nm)                 (au**2)    (au)      (au)      (au)
-----------------------------------------------------------------------------
   1   30094.4    332.3   0.000081777   0.00089   0.02967   0.00073  -0.00369

Dispersion correction           -0.025170235
FINAL SINGLE POINT ENERGY      -189.343643028996

DIPOLE MOMENT
-------------
                                X             Y             Z
Electronic contribution:     -2.03422      -1.70679       0.33179
Nuclear contribution   :      2.37236       2.67787      -0.54391
                        -----------------------------------------
Total Dipole Moment    :      0.33814       0.97108      -0.21212
                        -----------------------------------------
Magnitude (a.u.)       :      1.04992
Magnitude (Debye)      :      2.66869

Rotational constants in cm-1:     0.731570     0.207213     0.162490
Rotational constants in MHz : 21931.925711  6212.098784  4871.330835

                             ****ORCA TERMINATED NORMALLY****
TOTAL RUN TIME: 0 days 0 hours 0 minutes 11 seconds 852 msec
