                         Program Version 5.0.3 -  RELEASE  -
|  1> ! HF-3c
|  2> !TightSCF
|  3> %scf
|  4>  ConvForced true
|  5>  convergence tight
|  6>  MaxIter 500
|  7> end
|  8>
|  9> %tddft
| 10>  nroots 1
| 11> end
| 12>
| 13> # 	15374
| 14> * xyz 0 1
| 15> 		C   -1.164505  -0.399137   0.033850
| 16> 		O   -1.903088  -0.853927  -0.873735
| 17> 		C   -0.029146   0.440850  -0.313376
| 18> 		C    1.198425   0.125166   0.200961
| 19> 		H   -1.365606  -0.682135   1.034747
| 20> 		H   -0.063037   1.452210  -0.779325
| 21> 		H    1.288255  -0.862294   0.658770
| 22> 		H    2.049928   0.788799   0.055330
| 23> *
| 24>
| 25>                          ****END OF INPUT****

CARTESIAN COORDINATES (ANGSTROEM)
---------------------------------
  C     -1.164505   -0.399137    0.033850
  O     -1.903088   -0.853927   -0.873735
  C     -0.029146    0.440850   -0.313376
  C      1.198425    0.125166    0.200961
  H     -1.365606   -0.682135    1.034747
  H     -0.063037    1.452210   -0.779325
  H      1.288255   -0.862294    0.658770
  H      2.049928    0.788799    0.055330

 Total Charge           Charge          ....    0
 Multiplicity           Mult            ....    1
 Number of Electrons    NEL             ....   30
 Basis Dimension        Dim             ....   24

ORBITAL ENERGIES
----------------

  NO   OCC          E(Eh)            E(eV)
   0   2.0000     -20.361271      -554.0584
   1   2.0000     -11.291805      -307.2656
   2   2.0000     -11.188479      -304.4540
   3   2.0000     -11.179186      -304.2011
   4   2.0000      -1.375775       -37.4368
   5   2.0000      -1.077299       -29.3148
   6   2.0000      -0.881937       -23.9987
   7   2.0000      -0.776505       -21.1298
   8   2.0000      -0.682003       -18.5582
   9   2.0000      -0.634716       -17.2715
  10   2.0000      -0.579125       -15.7588
  11   2.0000      -0.547201       -14.8901
  12   2.0000      -0.488817       -13.3014
  13   2.0000      -0.425522       -11.5790
  14   2.0000      -0.386502       -10.5173
  15   0.0000       0.141276         3.8443
  16   0.0000       0.237869         6.4727
  17   0.0000       0.584157        15.8957
  18   0.0000       0.628465        17.1014
  19   0.0000       0.639905        17.4127

MULLIKEN ATOMIC CHARGES
-----------------------
   0 C :    0.134482
   1 O :   -0.327138
   2 C :   -0.163774
   3 C :   -0.231813
   4 H :    0.149497
   5 H :    0.158743
   6 H :    0.136381
   7 H :    0.143622
Sum of atomic charges:    0.0000000

LOEWDIN ATOMIC CHARGES
----------------------
   0 C :    0.134388
   1 O :   -0.246171
   2 C :   -0.119426
   3 C :   -0.139593
   4 H :    0.081943
   5 H :    0.107041
   6 H :    0.088097
   7 H :    0.093720

  Mayer bond orders larger than 0.100000
B(  0-C ,  1-O ) :   1.9168 B(  0-C ,  2-C ) :   1.0285 B(  0-C ,  4-H ) :   0.9316
B(  2-C ,  3-C ) :   1.9624 B(  2-C ,  5-H ) :   0.9491 B(  3-C ,  6-H ) :   0.9681
B(  3-C ,  7-H ) :   0.9665

-----------------------------------------------------------------------------
         ABSORPTION SPECTRUM VIA TRANSITION ELECTRIC DIPOLE MOMENTS
-----------------------------------------------------------------------------
State   Energy    Wavelength  fosc         T2        TX        TY        TZ
        (cm-1)      (nm)                 (au**2)    (au)      (au)      (au)
-----------------------------------------------------------------------------
   1   30217.3    330.9   0.000102986   0.00112  -0.02968  -0.00463  -0.01481

Dispersion correction           -0.025387201
FINAL SINGLE POINT ENERGY      -189.334637819530

DIPOLE MOMENT
-------------
                                X             Y             Z
Electronic contribution:     -2.93857      -0.96618      -1.14454
Nuclear contribution   :      3.67621       1.37709       1.83378
                        -----------------------------------------
Total Dipole Moment    :      0.73764       0.41091       0.68924
                        -----------------------------------------
Magnitude (a.u.)       :      1.08996
Magnitude (Debye)      :      2.77045

Rotational constants in cm-1:     1.193963     0.159421     0.152172
Rotational constants in MHz : 35794.104529  4779.314968  4562.012970

                             ****ORCA TERMINATED NORMALLY****
TOTAL RUN TIME: 0 days 0 hours 0 minutes 15 seconds 776 msec
