                         Program Version 5.0.3 -  RELEASE  -
|  1> ! HF-3c
|  2> !TightSCF
|  3> %scf
|  4>  ConvForced true
|  5>  convergence tight
|  6>  MaxIter 500
|  7> end
|  8>
|  9> %tddft
| 10>  nroots 1
| 11> end
| 12>
| 13> # 	30785
| 14> * xyz 0 1
| 15> 		C   -0.632088  -0.419917  -0.015150
| 16> 		O   -0.538043  -1.628478   0.011106
| 17> 		C    0.614487   0.430877   0.029955
| 18> 		C    1.878056  -0.162347  -0.010261
| 19> 		H   -1.770091   0.101093  -0.166969
| 20> 		H    0.385361   1.588921   0.049130
| 21> 		H    1.981080  -1.226990  -0.026642
| 22> 		H    2.712565   0.464115  -0.085327
| 23> *
| 24>
| 25>                          ****END OF INPUT****

CARTESIAN COORDINATES (ANGSTROEM)
---------------------------------
  C     -0.632088   -0.419917   -0.015150
  O     -0.538043   -1.628478    0.011106
  C      0.614487    0.430877    0.029955
  C      1.878056   -0.162347   -0.010261
  H     -1.770091    0.101093   -0.166969
  H      0.385361    1.588921    0.049130
  H      1.981080   -1.226990   -0.026642
  H      2.712565    0.464115   -0.085327

 Total Charge           Charge          ....    0
 Multiplicity           Mult            ....    1
 Number of Electrons    NEL             ....   30
 Basis Dimension        Dim             ....   24

ORBITAL ENERGIES
----------------

  NO   OCC          E(Eh)            E(eV)
   0   2.0000     -20.352222      -553.8121
   1   2.0000     -11.284612      -307.0699
   2   2.0000     -11.185701      -304.3784
   3   2.0000     -11.182748      -304.2981
   4   2.0000      -1.392893       -37.9026
   5   2.0000      -1.047243       -28.4969
   6   2.0000      -0.872120       -23.7316
   7   2.0000      -0.720262       -19.5993
   8   2.0000      -0.679559       -18.4917
   9   2.0000      -0.601295       -16.3621
  10   2.0000      -0.585165       -15.9232
  11   2.0000      -0.530982       -14.4487
  12   2.0000      -0.521554       -14.1922
  13   2.0000      -0.396486       -10.7889
  14   2.0000      -0.374257       -10.1841
  15   0.0000       0.129995         3.5373
  16   0.0000       0.299307         8.1446
  17   0.0000       0.459780        12.5112
  18   0.0000       0.550793        14.9878
  19   0.0000       0.642209        17.4754

MULLIKEN ATOMIC CHARGES
-----------------------
   0 C :    0.169699
   1 O :   -0.365647
   2 C :   -0.148393
   3 C :   -0.234823
   4 H :    0.134599
   5 H :    0.139005
   6 H :    0.162101
   7 H :    0.143459
Sum of atomic charges:    0.0000000

LOEWDIN ATOMIC CHARGES
----------------------
   0 C :    0.137741
   1 O :   -0.270273
   2 C :   -0.113274
   3 C :   -0.131111
   4 H :    0.084713
   5 H :    0.095017
   6 H :    0.106338
   7 H :    0.090849

  Mayer bond orders larger than 0.100000
B(  0-C ,  1-O ) :   1.9069 B(  0-C ,  2-C ) :   1.0192 B(  0-C ,  4-H ) :   0.9082
B(  2-C ,  3-C ) :   1.9412 B(  2-C ,  5-H ) :   0.9602 B(  3-C ,  6-H ) :   0.9603
B(  3-C ,  7-H ) :   0.9681

-----------------------------------------------------------------------------
         ABSORPTION SPECTRUM VIA TRANSITION ELECTRIC DIPOLE MOMENTS
-----------------------------------------------------------------------------
State   Energy    Wavelength  fosc         T2        TX        TY        TZ
        (cm-1)      (nm)                 (au**2)    (au)      (au)      (au)
-----------------------------------------------------------------------------
   1   32165.1    310.9   0.000019946   0.00020  -0.00814   0.00056  -0.01173

Dispersion correction           -0.024992601
FINAL SINGLE POINT ENERGY      -189.319525915978

DIPOLE MOMENT
-------------
                                X             Y             Z
Electronic contribution:     -1.79748      -1.67674       0.15184
Nuclear contribution   :      1.94907       2.65595      -0.21548
                        -----------------------------------------
Total Dipole Moment    :      0.15159       0.97921      -0.06364
                        -----------------------------------------
Magnitude (a.u.)       :      0.99291
Magnitude (Debye)      :      2.52379

Rotational constants in cm-1:     0.691072     0.210805     0.161703
Rotational constants in MHz : 20717.825831  6319.775281  4847.730531

                             ****ORCA TERMINATED NORMALLY****
TOTAL RUN TIME: 0 days 0 hours 0 minutes 16 seconds 86 msec
