                         Program Version 5.0.3 -  RELEASE  -
|  1> ! HF-3c
|  2> !TightSCF
|  3> %scf
|  4>  ConvForced true
|  5>  convergence tight
|  6>  MaxIter 500
|  7> end
|  8>
|  9> %tddft
| 10>  nroots 1
| 11> end
| 12>
| 13> # 	24082
| 14> * xyz 0 1
| 15> 		C   -0.640473  -0.410121  -0.015668
| 16> 		O   -0.546710  -1.651405  -0.002398
| 17> 		C    0.591769   0.410769  -0.008995
| 18> 		C    1.886900  -0.140479  -0.002675
| 19> 		H   -1.653717   0.192423   0.245213
| 20> 		H    0.530986   1.561858  -0.053979
| 21> 		H    1.981814  -1.270814   0.080229
| 22> 		H    2.879094   0.668087   0.090152
| 23> *
| 24>
| 25>                          ****END OF INPUT****

CARTESIAN COORDINATES (ANGSTROEM)
---------------------------------
  C     -0.640473   -0.410121   -0.015668
  O     -0.546710   -1.651405   -0.002398
  C      0.591769    0.410769   -0.008995
  C      1.886900   -0.140479   -0.002675
  H     -1.653717    0.192423    0.245213
  H      0.530986    1.561858   -0.053979
  H      1.981814   -1.270814    0.080229
  H      2.879094    0.668087    0.090152

 Total Charge           Charge          ....    0
 Multiplicity           Mult            ....    1
 Number of Electrons    NEL             ....   30
 Basis Dimension        Dim             ....   24

ORBITAL ENERGIES
----------------

  NO   OCC          E(Eh)            E(eV)
   0   2.0000     -20.340838      -553.5023
   1   2.0000     -11.280288      -306.9522
   2   2.0000     -11.178987      -304.1957
   3   2.0000     -11.164995      -303.8150
   4   2.0000      -1.367241       -37.2045
   5   2.0000      -1.032637       -28.0995
   6   2.0000      -0.858955       -23.3733
   7   2.0000      -0.707107       -19.2414
   8   2.0000      -0.666334       -18.1319
   9   2.0000      -0.586286       -15.9537
  10   2.0000      -0.542642       -14.7660
  11   2.0000      -0.515138       -14.0176
  12   2.0000      -0.500373       -13.6158
  13   2.0000      -0.400479       -10.8976
  14   2.0000      -0.359239        -9.7754
  15   0.0000       0.126098         3.4313
  16   0.0000       0.298317         8.1176
  17   0.0000       0.448315        12.1993
  18   0.0000       0.533911        14.5285
  19   0.0000       0.582419        15.8484

MULLIKEN ATOMIC CHARGES
-----------------------
   0 C :    0.155733
   1 O :   -0.361538
   2 C :   -0.184363
   3 C :   -0.183497
   4 H :    0.138595
   5 H :    0.129967
   6 H :    0.156848
   7 H :    0.148255
Sum of atomic charges:   -0.0000000

LOEWDIN ATOMIC CHARGES
----------------------
   0 C :    0.140250
   1 O :   -0.277777
   2 C :   -0.152376
   3 C :   -0.100755
   4 H :    0.085141
   5 H :    0.086156
   6 H :    0.106918
   7 H :    0.112442

  Mayer bond orders larger than 0.100000
B(  0-C ,  1-O ) :   1.8861 B(  0-C ,  2-C ) :   1.0484 B(  0-C ,  4-H ) :   0.9155
B(  2-C ,  3-C ) :   1.9109 B(  2-C ,  5-H ) :   0.9616 B(  3-C ,  6-H ) :   0.9564
B(  3-C ,  7-H ) :   0.9576

-----------------------------------------------------------------------------
         ABSORPTION SPECTRUM VIA TRANSITION ELECTRIC DIPOLE MOMENTS
-----------------------------------------------------------------------------
State   Energy    Wavelength  fosc         T2        TX        TY        TZ
        (cm-1)      (nm)                 (au**2)    (au)      (au)      (au)
-----------------------------------------------------------------------------
   1   30643.0    326.3   0.000200488   0.00215   0.04205  -0.00521  -0.01894

Dispersion correction           -0.024790108
FINAL SINGLE POINT ENERGY      -189.305184204286

DIPOLE MOMENT
-------------
                                X             Y             Z
Electronic contribution:     -1.96441      -1.84938      -0.26293
Nuclear contribution   :      2.34988       2.86627       0.33937
                        -----------------------------------------
Total Dipole Moment    :      0.38547       1.01689       0.07644
                        -----------------------------------------
Magnitude (a.u.)       :      1.09018
Magnitude (Debye)      :      2.77102

Rotational constants in cm-1:     0.691591     0.205199     0.158491
Rotational constants in MHz : 20733.368974  6151.701256  4751.443954

                             ****ORCA TERMINATED NORMALLY****
TOTAL RUN TIME: 0 days 0 hours 0 minutes 8 seconds 545 msec
