                         Program Version 5.0.3 -  RELEASE  -
|  1> ! HF-3c
|  2> !TightSCF
|  3> %scf
|  4>  ConvForced true
|  5>  convergence tight
|  6>  MaxIter 500
|  7> end
|  8>
|  9> %tddft
| 10>  nroots 1
| 11> end
| 12>
| 13> # 	1795
| 14> * xyz 0 1
| 15> 		C   -1.200315  -0.364120   0.038546
| 16> 		O   -1.832798  -0.819728   1.054102
| 17> 		C    0.026612   0.413180   0.243115
| 18> 		C    1.156281  -0.025852  -0.279427
| 19> 		H   -1.591277  -0.516551  -0.954637
| 20> 		H    0.157438   1.421817   0.856563
| 21> 		H    1.330566  -0.693165  -0.754413
| 22> 		H    1.950442   0.574463  -0.139730
| 23> *
| 24>
| 25>                          ****END OF INPUT****

CARTESIAN COORDINATES (ANGSTROEM)
---------------------------------
  C     -1.200315   -0.364120    0.038546
  O     -1.832798   -0.819728    1.054102
  C      0.026612    0.413180    0.243115
  C      1.156281   -0.025852   -0.279427
  H     -1.591277   -0.516551   -0.954637
  H      0.157438    1.421817    0.856563
  H      1.330566   -0.693165   -0.754413
  H      1.950442    0.574463   -0.139730

 Total Charge           Charge          ....    0
 Multiplicity           Mult            ....    1
 Number of Electrons    NEL             ....   30
 Basis Dimension        Dim             ....   24

ORBITAL ENERGIES
----------------

  NO   OCC          E(Eh)            E(eV)
   0   2.0000     -20.364438      -554.1445
   1   2.0000     -11.294119      -307.3286
   2   2.0000     -11.214737      -305.1685
   3   2.0000     -11.194069      -304.6061
   4   2.0000      -1.364336       -37.1255
   5   2.0000      -1.109333       -30.1865
   6   2.0000      -0.917349       -24.9623
   7   2.0000      -0.802579       -21.8393
   8   2.0000      -0.705367       -19.1940
   9   2.0000      -0.650034       -17.6883
  10   2.0000      -0.594072       -16.1655
  11   2.0000      -0.563108       -15.3229
  12   2.0000      -0.485051       -13.1989
  13   2.0000      -0.430239       -11.7074
  14   2.0000      -0.412247       -11.2178
  15   0.0000       0.137825         3.7504
  16   0.0000       0.228373         6.2144
  17   0.0000       0.520909        14.1747
  18   0.0000       0.612256        16.6603
  19   0.0000       0.716667        19.5015

MULLIKEN ATOMIC CHARGES
-----------------------
   0 C :    0.138960
   1 O :   -0.320843
   2 C :   -0.117159
   3 C :   -0.316850
   4 H :    0.155128
   5 H :    0.174445
   6 H :    0.134642
   7 H :    0.151678
Sum of atomic charges:   -0.0000000

LOEWDIN ATOMIC CHARGES
----------------------
   0 C :    0.139921
   1 O :   -0.246195
   2 C :   -0.069757
   3 C :   -0.202991
   4 H :    0.088966
   5 H :    0.125348
   6 H :    0.069382
   7 H :    0.095327

  Mayer bond orders larger than 0.100000
B(  0-C ,  1-O ) :   1.9257 B(  0-C ,  2-C ) :   1.0199 B(  0-C ,  4-H ) :   0.9300
B(  2-C ,  3-C ) :   1.9751 B(  2-C ,  5-H ) :   0.9399 B(  3-C ,  6-H ) :   0.9723
B(  3-C ,  7-H ) :   0.9624

-----------------------------------------------------------------------------
         ABSORPTION SPECTRUM VIA TRANSITION ELECTRIC DIPOLE MOMENTS
-----------------------------------------------------------------------------
State   Energy    Wavelength  fosc         T2        TX        TY        TZ
        (cm-1)      (nm)                 (au**2)    (au)      (au)      (au)
-----------------------------------------------------------------------------
   1   29351.4    340.7   0.000186393   0.00209  -0.04426  -0.01030   0.00505

Dispersion correction           -0.025510376
FINAL SINGLE POINT ENERGY      -189.247070715233

DIPOLE MOMENT
-------------
                                X             Y             Z
Electronic contribution:     -3.07198      -0.98165       1.34121
Nuclear contribution   :      3.56530       1.53512      -1.98318
                        -----------------------------------------
Total Dipole Moment    :      0.49333       0.55346      -0.64197
                        -----------------------------------------
Magnitude (a.u.)       :      0.98072
Magnitude (Debye)      :      2.49279

Rotational constants in cm-1:     1.149973     0.160740     0.156043
Rotational constants in MHz : 34475.320044  4818.875120  4678.060016

                             ****ORCA TERMINATED NORMALLY****
TOTAL RUN TIME: 0 days 0 hours 0 minutes 15 seconds 756 msec
