                         Program Version 5.0.3 -  RELEASE  -
|  1> ! B3LYP cc-pVDZ
|  2> !TightSCF
|  3> %scf
|  4>  ConvForced true
|  5>  convergence tight
|  6>  MaxIter 500
|  7> end
|  8>
|  9> %tddft
| 10>  nroots 1
| 11> end
| 12>
| 13> # 	11381
| 14> * xyz 0 1
| 15> 		C   -1.219214  -0.329414   0.011559
| 16> 		O   -1.176668  -1.489781   0.204025
| 17> 		C    0.044999   0.494671   0.061356
| 18> 		C    1.249269   0.025273   0.010218
| 19> 		H   -2.134993   0.185139  -0.181912
| 20> 		H   -0.001184   1.662693   0.113840
| 21> 		H    1.232367  -1.007219  -0.217161
| 22> 		H    2.112235   0.513713   0.003253
| 23> *
| 24>
| 25>                          ****END OF INPUT****

CARTESIAN COORDINATES (ANGSTROEM)
---------------------------------
  C     -1.219214   -0.329414    0.011559
  O     -1.176668   -1.489781    0.204025
  C      0.044999    0.494671    0.061356
  C      1.249269    0.025273    0.010218
  H     -2.134993    0.185139   -0.181912
  H     -0.001184    1.662693    0.113840
  H      1.232367   -1.007219   -0.217161
  H      2.112235    0.513713    0.003253

 Total Charge           Charge          ....    0
 Multiplicity           Mult            ....    1
 Number of Electrons    NEL             ....   30
 Basis Dimension        Dim             ....   76

ORBITAL ENERGIES
----------------

  NO   OCC          E(Eh)            E(eV)
   0   2.0000     -19.142137      -520.8840
   1   2.0000     -10.275452      -279.6093
   2   2.0000     -10.200340      -277.5654
   3   2.0000     -10.187355      -277.2120
   4   2.0000      -1.070562       -29.1315
   5   2.0000      -0.798527       -21.7290
   6   2.0000      -0.656455       -17.8630
   7   2.0000      -0.553512       -15.0618
   8   2.0000      -0.510886       -13.9019
   9   2.0000      -0.452198       -12.3049
  10   2.0000      -0.448720       -12.2103
  11   2.0000      -0.409756       -11.1500
  12   2.0000      -0.361310        -9.8317
  13   2.0000      -0.291424        -7.9301
  14   2.0000      -0.260282        -7.0826
  15   0.0000      -0.058582        -1.5941
  16   0.0000       0.063018         1.7148
  17   0.0000       0.073716         2.0059
  18   0.0000       0.104138         2.8337
  19   0.0000       0.122748         3.3401

MULLIKEN ATOMIC CHARGES
-----------------------
   0 C :    0.213099
   1 O :   -0.160418
   2 C :   -0.201167
   3 C :    0.185116
   4 H :   -0.024453
   5 H :   -0.005517
   6 H :    0.006243
   7 H :   -0.012903
Sum of atomic charges:   -0.0000000

LOEWDIN ATOMIC CHARGES
----------------------
   0 C :   -0.039275
   1 O :    0.036190
   2 C :   -0.079885
   3 C :    0.028670
   4 H :   -0.009657
   5 H :    0.032855
   6 H :    0.026205
   7 H :    0.004897

  Mayer bond orders larger than 0.100000
B(  0-C ,  1-O ) :   2.2290 B(  0-C ,  2-C ) :   1.0029 B(  0-C ,  4-H ) :   0.9248
B(  2-C ,  3-C ) :   2.0174 B(  2-C ,  5-H ) :   0.9320 B(  3-C ,  6-H ) :   0.9204
B(  3-C ,  7-H ) :   0.9377

-----------------------------------------------------------------------------
         ABSORPTION SPECTRUM VIA TRANSITION ELECTRIC DIPOLE MOMENTS
-----------------------------------------------------------------------------
State   Energy    Wavelength  fosc         T2        TX        TY        TZ
        (cm-1)      (nm)                 (au**2)    (au)      (au)      (au)
-----------------------------------------------------------------------------
   1   30912.4    323.5   0.000074782   0.00080   0.01503  -0.01681   0.01697

FINAL SINGLE POINT ENERGY      -191.643825347018

DIPOLE MOMENT
-------------
                                X             Y             Z
Electronic contribution:     -1.98406      -1.81615       0.35055
Nuclear contribution   :      2.23895       2.60475      -0.52888
                        -----------------------------------------
Total Dipole Moment    :      0.25489       0.78860      -0.17833
                        -----------------------------------------
Magnitude (a.u.)       :      0.84774
Magnitude (Debye)      :      2.15479

Rotational constants in cm-1:     0.820031     0.207332     0.166521
Rotational constants in MHz : 24583.912082  6215.662280  4992.159588

                             ****ORCA TERMINATED NORMALLY****
TOTAL RUN TIME: 0 days 0 hours 3 minutes 26 seconds 386 msec
