                         Program Version 5.0.3 -  RELEASE  -
|  1> ! B3LYP cc-pVDZ
|  2> !TightSCF
|  3> %scf
|  4>  ConvForced true
|  5>  convergence tight
|  6>  MaxIter 500
|  7> end
|  8>
|  9> %tddft
| 10>  nroots 1
| 11> end
| 12>
| 13> # 	17143
| 14> * xyz 0 1
| 15> 		C   -1.166794  -0.274790  -0.035031
| 16> 		O   -1.177991  -1.548828   0.000699
| 17> 		C    0.016670   0.567150   0.006113
| 18> 		C    1.230506  -0.032494  -0.081797
| 19> 		H   -2.228081   0.194869   0.142987
| 20> 		H   -0.181834   1.666722   0.011433
| 21> 		H    1.287846  -1.111389  -0.128410
| 22> 		H    2.245819   0.548232   0.028708
| 23> *
| 24>
| 25>                          ****END OF INPUT****

CARTESIAN COORDINATES (ANGSTROEM)
---------------------------------
  C     -1.166794   -0.274790   -0.035031
  O     -1.177991   -1.548828    0.000699
  C      0.016670    0.567150    0.006113
  C      1.230506   -0.032494   -0.081797
  H     -2.228081    0.194869    0.142987
  H     -0.181834    1.666722    0.011433
  H      1.287846   -1.111389   -0.128410
  H      2.245819    0.548232    0.028708

 Total Charge           Charge          ....    0
 Multiplicity           Mult            ....    1
 Number of Electrons    NEL             ....   30
 Basis Dimension        Dim             ....   76

ORBITAL ENERGIES
----------------

  NO   OCC          E(Eh)            E(eV)
   0   2.0000     -19.134299      -520.6708
   1   2.0000     -10.279585      -279.7217
   2   2.0000     -10.229411      -278.3564
   3   2.0000     -10.217440      -278.0307
   4   2.0000      -1.009597       -27.4725
   5   2.0000      -0.797925       -21.7126
   6   2.0000      -0.656765       -17.8715
   7   2.0000      -0.536700       -14.6043
   8   2.0000      -0.499770       -13.5994
   9   2.0000      -0.446710       -12.1556
  10   2.0000      -0.407659       -11.0930
  11   2.0000      -0.385113       -10.4794
  12   2.0000      -0.378747       -10.3062
  13   2.0000      -0.285988        -7.7821
  14   2.0000      -0.251646        -6.8476
  15   0.0000      -0.082757        -2.2519
  16   0.0000       0.047046         1.2802
  17   0.0000       0.058822         1.6006
  18   0.0000       0.085081         2.3152
  19   0.0000       0.113826         3.0974

MULLIKEN ATOMIC CHARGES
-----------------------
   0 C :    0.160247
   1 O :   -0.244015
   2 C :   -0.089562
   3 C :    0.054255
   4 H :    0.002761
   5 H :    0.010577
   6 H :    0.048001
   7 H :    0.057736
Sum of atomic charges:   -0.0000000

LOEWDIN ATOMIC CHARGES
----------------------
   0 C :   -0.011096
   1 O :   -0.071125
   2 C :   -0.086188
   3 C :    0.040298
   4 H :    0.008888
   5 H :    0.038010
   6 H :    0.032213
   7 H :    0.049000

  Mayer bond orders larger than 0.100000
B(  0-C ,  1-O ) :   2.0950 B(  0-C ,  2-C ) :   1.0852 B(  0-C ,  4-H ) :   0.9212
B(  1-O ,  3-C ) :   0.1053 B(  2-C ,  3-C ) :   1.9156 B(  2-C ,  5-H ) :   0.9476
B(  3-C ,  6-H ) :   0.9284 B(  3-C ,  7-H ) :   0.9464

-----------------------------------------------------------------------------
         ABSORPTION SPECTRUM VIA TRANSITION ELECTRIC DIPOLE MOMENTS
-----------------------------------------------------------------------------
State   Energy    Wavelength  fosc         T2        TX        TY        TZ
        (cm-1)      (nm)                 (au**2)    (au)      (au)      (au)
-----------------------------------------------------------------------------
   1   24170.5    413.7   0.000156654   0.00213  -0.01918   0.00082   0.04201

FINAL SINGLE POINT ENERGY      -191.684944701114

DIPOLE MOMENT
-------------
                                X             Y             Z
Electronic contribution:     -1.65363      -1.59120      -0.13862
Nuclear contribution   :      2.16235       2.56275       0.13625
                        -----------------------------------------
Total Dipole Moment    :      0.50872       0.97155      -0.00237
                        -----------------------------------------
Magnitude (a.u.)       :      1.09668
Magnitude (Debye)      :      2.78754

Rotational constants in cm-1:     0.709972     0.210418     0.162496
Rotational constants in MHz : 21284.416781  6308.170214  4871.494838

                             ****ORCA TERMINATED NORMALLY****
TOTAL RUN TIME: 0 days 0 hours 3 minutes 27 seconds 457 msec
