                         Program Version 5.0.3 -  RELEASE  -
|  1> ! B3LYP cc-pVDZ
|  2> !TightSCF
|  3> %scf
|  4>  ConvForced true
|  5>  convergence tight
|  6>  MaxIter 500
|  7> end
|  8>
|  9> %tddft
| 10>  nroots 1
| 11> end
| 12>
| 13> # 	24133
| 14> * xyz 0 1
| 15> 		C   -0.631640  -0.424263  -0.050078
| 16> 		O   -0.531970  -1.614777   0.046956
| 17> 		C    0.612273   0.422702   0.012588
| 18> 		C    1.841836  -0.167824  -0.035532
| 19> 		H   -1.495264   0.070725  -0.292577
| 20> 		H    0.541936   1.619350   0.442398
| 21> 		H    1.891718  -1.309023  -0.122470
| 22> 		H    2.761489   0.524736   0.130393
| 23> *
| 24>
| 25>                          ****END OF INPUT****

CARTESIAN COORDINATES (ANGSTROEM)
---------------------------------
  C     -0.631640   -0.424263   -0.050078
  O     -0.531970   -1.614777    0.046956
  C      0.612273    0.422702    0.012588
  C      1.841836   -0.167824   -0.035532
  H     -1.495264    0.070725   -0.292577
  H      0.541936    1.619350    0.442398
  H      1.891718   -1.309023   -0.122470
  H      2.761489    0.524736    0.130393

 Total Charge           Charge          ....    0
 Multiplicity           Mult            ....    1
 Number of Electrons    NEL             ....   30
 Basis Dimension        Dim             ....   76

ORBITAL ENERGIES
----------------

  NO   OCC          E(Eh)            E(eV)
   0   2.0000     -19.140964      -520.8521
   1   2.0000     -10.272483      -279.5285
   2   2.0000     -10.221027      -278.1283
   3   2.0000     -10.215629      -277.9814
   4   2.0000      -1.057037       -28.7635
   5   2.0000      -0.775352       -21.0984
   6   2.0000      -0.653927       -17.7942
   7   2.0000      -0.539606       -14.6834
   8   2.0000      -0.491134       -13.3644
   9   2.0000      -0.446713       -12.1557
  10   2.0000      -0.419744       -11.4218
  11   2.0000      -0.396682       -10.7943
  12   2.0000      -0.364454        -9.9173
  13   2.0000      -0.281051        -7.6478
  14   2.0000      -0.257725        -7.0131
  15   0.0000      -0.067016        -1.8236
  16   0.0000       0.032358         0.8805
  17   0.0000       0.062430         1.6988
  18   0.0000       0.085759         2.3336
  19   0.0000       0.113294         3.0829

MULLIKEN ATOMIC CHARGES
-----------------------
   0 C :    0.248941
   1 O :   -0.185555
   2 C :   -0.203102
   3 C :    0.019663
   4 H :   -0.029146
   5 H :    0.033755
   6 H :    0.062858
   7 H :    0.052585
Sum of atomic charges:    0.0000000

LOEWDIN ATOMIC CHARGES
----------------------
   0 C :   -0.026539
   1 O :    0.013869
   2 C :   -0.104437
   3 C :   -0.004851
   4 H :   -0.016774
   5 H :    0.047129
   6 H :    0.045017
   7 H :    0.046586

  Mayer bond orders larger than 0.100000
B(  0-C ,  1-O ) :   2.1972 B(  0-C ,  2-C ) :   1.0243 B(  0-C ,  4-H ) :   0.9324
B(  2-C ,  3-C ) :   1.9623 B(  2-C ,  5-H ) :   0.9244 B(  3-C ,  6-H ) :   0.9270
B(  3-C ,  7-H ) :   0.9386

-----------------------------------------------------------------------------
         ABSORPTION SPECTRUM VIA TRANSITION ELECTRIC DIPOLE MOMENTS
-----------------------------------------------------------------------------
State   Energy    Wavelength  fosc         T2        TX        TY        TZ
        (cm-1)      (nm)                 (au**2)    (au)      (au)      (au)
-----------------------------------------------------------------------------
   1   29018.0    344.6   0.001240696   0.01408   0.11425   0.01678   0.02722

FINAL SINGLE POINT ENERGY      -191.645083234863

DIPOLE MOMENT
-------------
                                X             Y             Z
Electronic contribution:     -2.10330      -1.85754      -0.13729
Nuclear contribution   :      2.31360       2.63737       0.14646
                        -----------------------------------------
Total Dipole Moment    :      0.21030       0.77982       0.00917
                        -----------------------------------------
Magnitude (a.u.)       :      0.80773
Magnitude (Debye)      :      2.05310

Rotational constants in cm-1:     0.713078     0.215014     0.166499
Rotational constants in MHz : 21377.543086  6445.957386  4991.524645

                             ****ORCA TERMINATED NORMALLY****
TOTAL RUN TIME: 0 days 0 hours 3 minutes 27 seconds 472 msec
