                         Program Version 5.0.3 -  RELEASE  -
|  1> ! HF-3c
|  2> !TightSCF
|  3> %scf
|  4>  ConvForced true
|  5>  convergence tight
|  6>  MaxIter 500
|  7> end
|  8>
|  9> %tddft
| 10>  nroots 1
| 11> end
| 12>
| 13> # 	32451
| 14> * xyz 0 1
| 15> 		C   -0.551773  -0.438355   0.011855
| 16> 		O   -0.633326  -1.688806  -0.012843
| 17> 		C    0.652174   0.422023  -0.016020
| 18> 		C    1.867018  -0.046616   0.031877
| 19> 		H   -1.572060   0.056852   0.163435
| 20> 		H    0.439177   1.440990  -0.171464
| 21> 		H    1.793551  -1.203652  -0.106061
| 22> 		H    2.913077   0.469997  -0.021941
| 23> *
| 24>
| 25>                          ****END OF INPUT****

CARTESIAN COORDINATES (ANGSTROEM)
---------------------------------
  C     -0.551773   -0.438355    0.011855
  O     -0.633326   -1.688806   -0.012843
  C      0.652174    0.422023   -0.016020
  C      1.867018   -0.046616    0.031877
  H     -1.572060    0.056852    0.163435
  H      0.439177    1.440990   -0.171464
  H      1.793551   -1.203652   -0.106061
  H      2.913077    0.469997   -0.021941

 Total Charge           Charge          ....    0
 Multiplicity           Mult            ....    1
 Number of Electrons    NEL             ....   30
 Basis Dimension        Dim             ....   24

ORBITAL ENERGIES
----------------

  NO   OCC          E(Eh)            E(eV)
   0   2.0000     -20.345802      -553.6374
   1   2.0000     -11.280925      -306.9696
   2   2.0000     -11.193742      -304.5972
   3   2.0000     -11.190987      -304.5222
   4   2.0000      -1.366159       -37.1751
   5   2.0000      -1.087704       -29.5979
   6   2.0000      -0.880173       -23.9507
   7   2.0000      -0.733106       -19.9488
   8   2.0000      -0.696014       -18.9395
   9   2.0000      -0.611093       -16.6287
  10   2.0000      -0.577423       -15.7125
  11   2.0000      -0.527174       -14.3451
  12   2.0000      -0.500195       -13.6110
  13   2.0000      -0.409896       -11.1538
  14   2.0000      -0.396102       -10.7785
  15   0.0000       0.130381         3.5478
  16   0.0000       0.307450         8.3661
  17   0.0000       0.494146        13.4464
  18   0.0000       0.560288        15.2462
  19   0.0000       0.642793        17.4913

MULLIKEN ATOMIC CHARGES
-----------------------
   0 C :    0.156046
   1 O :   -0.354779
   2 C :   -0.201397
   3 C :   -0.199891
   4 H :    0.136818
   5 H :    0.141214
   6 H :    0.162006
   7 H :    0.159983
Sum of atomic charges:    0.0000000

LOEWDIN ATOMIC CHARGES
----------------------
   0 C :    0.144532
   1 O :   -0.273674
   2 C :   -0.152411
   3 C :   -0.109939
   4 H :    0.077877
   5 H :    0.086394
   6 H :    0.114060
   7 H :    0.113163

  Mayer bond orders larger than 0.100000
B(  0-C ,  1-O ) :   1.8984 B(  0-C ,  2-C ) :   1.0292 B(  0-C ,  4-H ) :   0.9309
B(  2-C ,  3-C ) :   1.9453 B(  2-C ,  5-H ) :   0.9565 B(  3-C ,  6-H ) :   0.9487
B(  3-C ,  7-H ) :   0.9576

-----------------------------------------------------------------------------
         ABSORPTION SPECTRUM VIA TRANSITION ELECTRIC DIPOLE MOMENTS
-----------------------------------------------------------------------------
State   Energy    Wavelength  fosc         T2        TX        TY        TZ
        (cm-1)      (nm)                 (au**2)    (au)      (au)      (au)
-----------------------------------------------------------------------------
   1   30558.7    327.2   0.000040527   0.00044  -0.00828  -0.00337   0.01889

Dispersion correction           -0.025581548
FINAL SINGLE POINT ENERGY      -189.330153347032

DIPOLE MOMENT
-------------
                                X             Y             Z
Electronic contribution:     -1.73175      -1.58688       0.09183
Nuclear contribution   :      2.19429       2.50670      -0.12716
                        -----------------------------------------
Total Dipole Moment    :      0.46254       0.91982      -0.03533
                        -----------------------------------------
Magnitude (a.u.)       :      1.03018
Magnitude (Debye)      :      2.61850

Rotational constants in cm-1:     0.808415     0.194854     0.157267
Rotational constants in MHz : 24235.684155  5841.561161  4714.741712

                             ****ORCA TERMINATED NORMALLY****
TOTAL RUN TIME: 0 days 0 hours 0 minutes 9 seconds 990 msec
