                         Program Version 5.0.3 -  RELEASE  -
|  1> ! HF-3c
|  2> !TightSCF
|  3> %scf
|  4>  ConvForced true
|  5>  convergence tight
|  6>  MaxIter 500
|  7> end
|  8>
|  9> %tddft
| 10>  nroots 1
| 11> end
| 12>
| 13> # 	30477
| 14> * xyz 0 1
| 15> 		C   -0.585539  -0.391725   0.004551
| 16> 		O   -0.544696  -1.598853  -0.007796
| 17> 		C    0.593653   0.384496   0.005441
| 18> 		C    1.848954  -0.152059   0.025941
| 19> 		H   -1.528625   0.027608   0.042130
| 20> 		H    0.351477   1.414880  -0.143875
| 21> 		H    1.840593  -1.394022  -0.098616
| 22> 		H    2.778759   0.473442  -0.115778
| 23> *
| 24>
| 25>                          ****END OF INPUT****

CARTESIAN COORDINATES (ANGSTROEM)
---------------------------------
  C     -0.585539   -0.391725    0.004551
  O     -0.544696   -1.598853   -0.007796
  C      0.593653    0.384496    0.005441
  C      1.848954   -0.152059    0.025941
  H     -1.528625    0.027608    0.042130
  H      0.351477    1.414880   -0.143875
  H      1.840593   -1.394022   -0.098616
  H      2.778759    0.473442   -0.115778

 Total Charge           Charge          ....    0
 Multiplicity           Mult            ....    1
 Number of Electrons    NEL             ....   30
 Basis Dimension        Dim             ....   24

ORBITAL ENERGIES
----------------

  NO   OCC          E(Eh)            E(eV)
   0   2.0000     -20.347717      -553.6895
   1   2.0000     -11.289354      -307.1989
   2   2.0000     -11.190740      -304.5155
   3   2.0000     -11.177636      -304.1589
   4   2.0000      -1.400798       -38.1176
   5   2.0000      -1.068390       -29.0724
   6   2.0000      -0.896736       -24.4014
   7   2.0000      -0.751111       -20.4388
   8   2.0000      -0.696520       -18.9533
   9   2.0000      -0.603773       -16.4295
  10   2.0000      -0.584970       -15.9178
  11   2.0000      -0.545462       -14.8428
  12   2.0000      -0.503056       -13.6889
  13   2.0000      -0.416879       -11.3439
  14   2.0000      -0.375613       -10.2210
  15   0.0000       0.123587         3.3630
  16   0.0000       0.318795         8.6748
  17   0.0000       0.494701        13.4615
  18   0.0000       0.560061        15.2400
  19   0.0000       0.708753        19.2861

MULLIKEN ATOMIC CHARGES
-----------------------
   0 C :    0.136819
   1 O :   -0.358109
   2 C :   -0.198259
   3 C :   -0.181869
   4 H :    0.140914
   5 H :    0.136674
   6 H :    0.173918
   7 H :    0.149912
Sum of atomic charges:   -0.0000000

LOEWDIN ATOMIC CHARGES
----------------------
   0 C :    0.129219
   1 O :   -0.266337
   2 C :   -0.155798
   3 C :   -0.095828
   4 H :    0.071221
   5 H :    0.084984
   6 H :    0.130612
   7 H :    0.101927

  Mayer bond orders larger than 0.100000
B(  0-C ,  1-O ) :   1.8678 B(  0-C ,  2-C ) :   1.0676 B(  0-C ,  4-H ) :   0.9363
B(  2-C ,  3-C ) :   1.9079 B(  2-C ,  5-H ) :   0.9596 B(  3-C ,  6-H ) :   0.9451
B(  3-C ,  7-H ) :   0.9620

-----------------------------------------------------------------------------
         ABSORPTION SPECTRUM VIA TRANSITION ELECTRIC DIPOLE MOMENTS
-----------------------------------------------------------------------------
State   Energy    Wavelength  fosc         T2        TX        TY        TZ
        (cm-1)      (nm)                 (au**2)    (au)      (au)      (au)
-----------------------------------------------------------------------------
   1   31316.6    319.3   0.000061791   0.00065   0.01860   0.00120  -0.01739

Dispersion correction           -0.026168659
FINAL SINGLE POINT ENERGY      -189.313859327591

DIPOLE MOMENT
-------------
                                X             Y             Z
Electronic contribution:     -1.66087      -1.47488       0.21535
Nuclear contribution   :      2.07488       2.27819      -0.29592
                        -----------------------------------------
Total Dipole Moment    :      0.41401       0.80331      -0.08057
                        -----------------------------------------
Magnitude (a.u.)       :      0.90731
Magnitude (Debye)      :      2.30619

Rotational constants in cm-1:     0.751844     0.220759     0.170844
Rotational constants in MHz : 22539.726679  6618.180653  5121.769864

                             ****ORCA TERMINATED NORMALLY****
TOTAL RUN TIME: 0 days 0 hours 0 minutes 11 seconds 587 msec
