                         Program Version 5.0.3 -  RELEASE  -
|  1> ! B3LYP cc-pVDZ
|  2> !TightSCF
|  3> %scf
|  4>  ConvForced true
|  5>  convergence tight
|  6>  MaxIter 500
|  7> end
|  8>
|  9> %tddft
| 10>  nroots 1
| 11> end
| 12>
| 13> # 	9337
| 14> * xyz 0 1
| 15> 		C   -1.214728  -0.417399   0.114012
| 16> 		O   -2.126375  -0.449137   0.873307
| 17> 		C    0.084303   0.342461   0.359085
| 18> 		C    1.113435   0.139635  -0.260136
| 19> 		H   -1.339020  -0.752331  -0.982056
| 20> 		H    0.056114   1.168610   1.025283
| 21> 		H    1.186479  -0.607849  -0.971590
| 22> 		H    2.175325   0.605074  -0.140860
| 23> *
| 24>
| 25>                          ****END OF INPUT****

CARTESIAN COORDINATES (ANGSTROEM)
---------------------------------
  C     -1.214728   -0.417399    0.114012
  O     -2.126375   -0.449137    0.873307
  C      0.084303    0.342461    0.359085
  C      1.113435    0.139635   -0.260136
  H     -1.339020   -0.752331   -0.982056
  H      0.056114    1.168610    1.025283
  H      1.186479   -0.607849   -0.971590
  H      2.175325    0.605074   -0.140860

 Total Charge           Charge          ....    0
 Multiplicity           Mult            ....    1
 Number of Electrons    NEL             ....   30
 Basis Dimension        Dim             ....   76

ORBITAL ENERGIES
----------------

  NO   OCC          E(Eh)            E(eV)
   0   2.0000     -19.146669      -521.0074
   1   2.0000     -10.283637      -279.8320
   2   2.0000     -10.196656      -277.4651
   3   2.0000     -10.190020      -277.2845
   4   2.0000      -1.065254       -28.9870
   5   2.0000      -0.822479       -22.3808
   6   2.0000      -0.634781       -17.2733
   7   2.0000      -0.572985       -15.5917
   8   2.0000      -0.486477       -13.2377
   9   2.0000      -0.477124       -12.9832
  10   2.0000      -0.438811       -11.9407
  11   2.0000      -0.402559       -10.9542
  12   2.0000      -0.368535       -10.0284
  13   2.0000      -0.312127        -8.4934
  14   2.0000      -0.256680        -6.9846
  15   0.0000      -0.048466        -1.3188
  16   0.0000       0.043625         1.1871
  17   0.0000       0.071089         1.9344
  18   0.0000       0.091918         2.5012
  19   0.0000       0.123704         3.3662

MULLIKEN ATOMIC CHARGES
-----------------------
   0 C :    0.156921
   1 O :   -0.162310
   2 C :   -0.061667
   3 C :    0.071600
   4 H :   -0.014151
   5 H :   -0.013859
   6 H :   -0.013543
   7 H :    0.037010
Sum of atomic charges:    0.0000000

LOEWDIN ATOMIC CHARGES
----------------------
   0 C :   -0.033980
   1 O :    0.030452
   2 C :   -0.070398
   3 C :   -0.016024
   4 H :   -0.004655
   5 H :    0.032394
   6 H :    0.013748
   7 H :    0.048463

  Mayer bond orders larger than 0.100000
B(  0-C ,  1-O ) :   2.2203 B(  0-C ,  2-C ) :   0.9970 B(  0-C ,  4-H ) :   0.9050
B(  2-C ,  3-C ) :   2.0190 B(  2-C ,  5-H ) :   0.9445 B(  3-C ,  6-H ) :   0.9272
B(  3-C ,  7-H ) :   0.9308

-----------------------------------------------------------------------------
         ABSORPTION SPECTRUM VIA TRANSITION ELECTRIC DIPOLE MOMENTS
-----------------------------------------------------------------------------
State   Energy    Wavelength  fosc         T2        TX        TY        TZ
        (cm-1)      (nm)                 (au**2)    (au)      (au)      (au)
-----------------------------------------------------------------------------
   1   31899.6    313.5   0.000339383   0.00350   0.03692  -0.00678   0.04575

FINAL SINGLE POINT ENERGY      -191.630108557635

DIPOLE MOMENT
-------------
                                X             Y             Z
Electronic contribution:     -3.21781      -0.62874       1.53132
Nuclear contribution   :      4.07795       0.78395      -2.02859
                        -----------------------------------------
Total Dipole Moment    :      0.86014       0.15521      -0.49727
                        -----------------------------------------
Magnitude (a.u.)       :      1.00559
Magnitude (Debye)      :      2.55600

Rotational constants in cm-1:     1.636499     0.156794     0.144843
Rotational constants in MHz : 49060.997204  4700.572195  4342.290059

                             ****ORCA TERMINATED NORMALLY****
TOTAL RUN TIME: 0 days 0 hours 3 minutes 20 seconds 902 msec
