                         Program Version 5.0.3 -  RELEASE  -
|  1> ! B3LYP cc-pVDZ
|  2> !TightSCF
|  3> %scf
|  4>  ConvForced true
|  5>  convergence tight
|  6>  MaxIter 500
|  7> end
|  8>
|  9> %tddft
| 10>  nroots 1
| 11> end
| 12>
| 13> # 	11000
| 14> * xyz 0 1
| 15> 		C   -1.133148  -0.297718   0.039517
| 16> 		O   -1.236537  -1.604977  -0.037145
| 17> 		C    0.051389   0.479201  -0.005743
| 18> 		C    1.201709   0.029241   0.036703
| 19> 		H   -2.250202   0.264444   0.304949
| 20> 		H   -0.050285   1.550778  -0.335770
| 21> 		H    1.242340  -1.060812   0.245813
| 22> 		H    2.149306   0.666917  -0.281022
| 23> *
| 24>
| 25>                          ****END OF INPUT****

CARTESIAN COORDINATES (ANGSTROEM)
---------------------------------
  C     -1.133148   -0.297718    0.039517
  O     -1.236537   -1.604977   -0.037145
  C      0.051389    0.479201   -0.005743
  C      1.201709    0.029241    0.036703
  H     -2.250202    0.264444    0.304949
  H     -0.050285    1.550778   -0.335770
  H      1.242340   -1.060812    0.245813
  H      2.149306    0.666917   -0.281022

 Total Charge           Charge          ....    0
 Multiplicity           Mult            ....    1
 Number of Electrons    NEL             ....   30
 Basis Dimension        Dim             ....   76

ORBITAL ENERGIES
----------------

  NO   OCC          E(Eh)            E(eV)
   0   2.0000     -19.144054      -520.9362
   1   2.0000     -10.293814      -280.1089
   2   2.0000     -10.217081      -278.0209
   3   2.0000     -10.203514      -277.6517
   4   2.0000      -0.997180       -27.1346
   5   2.0000      -0.831464       -22.6253
   6   2.0000      -0.663111       -18.0442
   7   2.0000      -0.536075       -14.5874
   8   2.0000      -0.500051       -13.6071
   9   2.0000      -0.447294       -12.1715
  10   2.0000      -0.415602       -11.3091
  11   2.0000      -0.379184       -10.3181
  12   2.0000      -0.363092        -9.8802
  13   2.0000      -0.303471        -8.2579
  14   2.0000      -0.255962        -6.9651
  15   0.0000      -0.082348        -2.2408
  16   0.0000       0.036644         0.9971
  17   0.0000       0.061708         1.6792
  18   0.0000       0.076870         2.0917
  19   0.0000       0.105850         2.8803

MULLIKEN ATOMIC CHARGES
-----------------------
   0 C :    0.121563
   1 O :   -0.255007
   2 C :   -0.046783
   3 C :    0.065726
   4 H :    0.016533
   5 H :    0.004408
   6 H :    0.037588
   7 H :    0.055973
Sum of atomic charges:    0.0000000

LOEWDIN ATOMIC CHARGES
----------------------
   0 C :    0.017297
   1 O :   -0.093386
   2 C :   -0.112214
   3 C :    0.022392
   4 H :    0.017968
   5 H :    0.046288
   6 H :    0.042622
   7 H :    0.059033

  Mayer bond orders larger than 0.100000
B(  0-C ,  1-O ) :   2.0800 B(  0-C ,  2-C ) :   1.0715 B(  0-C ,  4-H ) :   0.9018
B(  2-C ,  3-C ) :   1.9890 B(  2-C ,  5-H ) :   0.9284 B(  3-C ,  6-H ) :   0.9103
B(  3-C ,  7-H ) :   0.9245

-----------------------------------------------------------------------------
         ABSORPTION SPECTRUM VIA TRANSITION ELECTRIC DIPOLE MOMENTS
-----------------------------------------------------------------------------
State   Energy    Wavelength  fosc         T2        TX        TY        TZ
        (cm-1)      (nm)                 (au**2)    (au)      (au)      (au)
-----------------------------------------------------------------------------
   1   24428.1    409.4   0.000356821   0.00481  -0.02547   0.00430   0.06436

FINAL SINGLE POINT ENERGY      -191.645039048282

DIPOLE MOMENT
-------------
                                X             Y             Z
Electronic contribution:     -1.57726      -1.75890       0.04691
Nuclear contribution   :      2.16412       2.76892      -0.07497
                        -----------------------------------------
Total Dipole Moment    :      0.58686       1.01002      -0.02806
                        -----------------------------------------
Magnitude (a.u.)       :      1.16848
Magnitude (Debye)      :      2.97003

Rotational constants in cm-1:     0.801993     0.201215     0.162106
Rotational constants in MHz : 24043.135810  6032.266216  4859.830136

                             ****ORCA TERMINATED NORMALLY****
TOTAL RUN TIME: 0 days 0 hours 3 minutes 11 seconds 166 msec
