                         Program Version 5.0.3 -  RELEASE  -
|  1> ! HF-3c
|  2> !TightSCF
|  3> %scf
|  4>  ConvForced true
|  5>  convergence tight
|  6>  MaxIter 500
|  7> end
|  8>
|  9> %tddft
| 10>  nroots 1
| 11> end
| 12>
| 13> # 	12270
| 14> * xyz 0 1
| 15> 		C   -1.194656  -0.292113  -0.006860
| 16> 		O   -1.627303  -1.080882  -0.775803
| 17> 		C    0.012658   0.533600  -0.217663
| 18> 		C    1.252877   0.042560   0.160784
| 19> 		H   -1.620964  -0.140856   0.953409
| 20> 		H   -0.058926   1.442832  -0.822892
| 21> 		H    1.229763  -1.020226   0.685681
| 22> 		H    2.088920   0.544570   0.053341
| 23> *
| 24>
| 25>                          ****END OF INPUT****

CARTESIAN COORDINATES (ANGSTROEM)
---------------------------------
  C     -1.194656   -0.292113   -0.006860
  O     -1.627303   -1.080882   -0.775803
  C      0.012658    0.533600   -0.217663
  C      1.252877    0.042560    0.160784
  H     -1.620964   -0.140856    0.953409
  H     -0.058926    1.442832   -0.822892
  H      1.229763   -1.020226    0.685681
  H      2.088920    0.544570    0.053341

 Total Charge           Charge          ....    0
 Multiplicity           Mult            ....    1
 Number of Electrons    NEL             ....   30
 Basis Dimension        Dim             ....   24

ORBITAL ENERGIES
----------------

  NO   OCC          E(Eh)            E(eV)
   0   2.0000     -20.391891      -554.8916
   1   2.0000     -11.312605      -307.8316
   2   2.0000     -11.185322      -304.3681
   3   2.0000     -11.178854      -304.1921
   4   2.0000      -1.432935       -38.9921
   5   2.0000      -1.067126       -29.0380
   6   2.0000      -0.893799       -24.3215
   7   2.0000      -0.775698       -21.1078
   8   2.0000      -0.685247       -18.6465
   9   2.0000      -0.650959       -17.7135
  10   2.0000      -0.612475       -16.6663
  11   2.0000      -0.549129       -14.9426
  12   2.0000      -0.513228       -13.9656
  13   2.0000      -0.419102       -11.4043
  14   2.0000      -0.387388       -10.5413
  15   0.0000       0.184735         5.0269
  16   0.0000       0.202891         5.5209
  17   0.0000       0.539418        14.6783
  18   0.0000       0.614534        16.7223
  19   0.0000       0.714573        19.4445

MULLIKEN ATOMIC CHARGES
-----------------------
   0 C :    0.169274
   1 O :   -0.339997
   2 C :   -0.159596
   3 C :   -0.240979
   4 H :    0.138852
   5 H :    0.152150
   6 H :    0.142743
   7 H :    0.137553
Sum of atomic charges:   -0.0000000

LOEWDIN ATOMIC CHARGES
----------------------
   0 C :    0.151098
   1 O :   -0.235235
   2 C :   -0.118041
   3 C :   -0.149388
   4 H :    0.069717
   5 H :    0.100482
   6 H :    0.101012
   7 H :    0.080356

  Mayer bond orders larger than 0.100000
B(  0-C ,  1-O ) :   1.9512 B(  0-C ,  2-C ) :   0.9881 B(  0-C ,  4-H ) :   0.9192
B(  2-C ,  3-C ) :   1.9879 B(  2-C ,  5-H ) :   0.9512 B(  3-C ,  6-H ) :   0.9647
B(  3-C ,  7-H ) :   0.9705

-----------------------------------------------------------------------------
         ABSORPTION SPECTRUM VIA TRANSITION ELECTRIC DIPOLE MOMENTS
-----------------------------------------------------------------------------
State   Energy    Wavelength  fosc         T2        TX        TY        TZ
        (cm-1)      (nm)                 (au**2)    (au)      (au)      (au)
-----------------------------------------------------------------------------
   1   35914.5    278.4   0.000017787   0.00016  -0.01164  -0.00498  -0.00165

Dispersion correction           -0.025304617
FINAL SINGLE POINT ENERGY      -189.294417027665

DIPOLE MOMENT
-------------
                                X             Y             Z
Electronic contribution:     -2.65707      -1.07849      -1.05711
Nuclear contribution   :      3.09476       1.63610       1.63094
                        -----------------------------------------
Total Dipole Moment    :      0.43768       0.55761       0.57383
                        -----------------------------------------
Magnitude (a.u.)       :      0.91202
Magnitude (Debye)      :      2.31818

Rotational constants in cm-1:     0.953757     0.170900     0.160920
Rotational constants in MHz : 28592.919833  5123.444200  4824.271839

                             ****ORCA TERMINATED NORMALLY****
TOTAL RUN TIME: 0 days 0 hours 0 minutes 15 seconds 138 msec
