                         Program Version 5.0.3 -  RELEASE  -
|  1> ! B3LYP cc-pVDZ
|  2> !TightSCF
|  3> %scf
|  4>  ConvForced true
|  5>  convergence tight
|  6>  MaxIter 500
|  7> end
|  8>
|  9> %tddft
| 10>  nroots 1
| 11> end
| 12>
| 13> # 	23624
| 14> * xyz 0 1
| 15> 		C   -0.627111  -0.414915  -0.010959
| 16> 		O   -0.541080  -1.624157   0.003615
| 17> 		C    0.666213   0.426981  -0.012921
| 18> 		C    1.799349  -0.158584  -0.010970
| 19> 		H   -1.467580   0.080000   0.069644
| 20> 		H    0.443631   1.494154   0.136809
| 21> 		H    1.929562  -1.230624   0.135569
| 22> 		H    2.732467   0.446265   0.019914
| 23> *
| 24>
| 25>                          ****END OF INPUT****

CARTESIAN COORDINATES (ANGSTROEM)
---------------------------------
  C     -0.627111   -0.414915   -0.010959
  O     -0.541080   -1.624157    0.003615
  C      0.666213    0.426981   -0.012921
  C      1.799349   -0.158584   -0.010970
  H     -1.467580    0.080000    0.069644
  H      0.443631    1.494154    0.136809
  H      1.929562   -1.230624    0.135569
  H      2.732467    0.446265    0.019914

 Total Charge           Charge          ....    0
 Multiplicity           Mult            ....    1
 Number of Electrons    NEL             ....   30
 Basis Dimension        Dim             ....   76

ORBITAL ENERGIES
----------------

  NO   OCC          E(Eh)            E(eV)
   0   2.0000     -19.137783      -520.7655
   1   2.0000     -10.265538      -279.3395
   2   2.0000     -10.198789      -277.5232
   3   2.0000     -10.194444      -277.4049
   4   2.0000      -1.045062       -28.4376
   5   2.0000      -0.795090       -21.6355
   6   2.0000      -0.661784       -18.0081
   7   2.0000      -0.554664       -15.0932
   8   2.0000      -0.502324       -13.6689
   9   2.0000      -0.450833       -12.2678
  10   2.0000      -0.430759       -11.7216
  11   2.0000      -0.397168       -10.8075
  12   2.0000      -0.368783       -10.0351
  13   2.0000      -0.290217        -7.8972
  14   2.0000      -0.253483        -6.8976
  15   0.0000      -0.060670        -1.6509
  16   0.0000       0.057740         1.5712
  17   0.0000       0.072787         1.9806
  18   0.0000       0.098084         2.6690
  19   0.0000       0.131404         3.5757

MULLIKEN ATOMIC CHARGES
-----------------------
   0 C :    0.257179
   1 O :   -0.197259
   2 C :   -0.148094
   3 C :    0.092532
   4 H :   -0.053752
   5 H :   -0.013143
   6 H :    0.034950
   7 H :    0.027589
Sum of atomic charges:   -0.0000000

LOEWDIN ATOMIC CHARGES
----------------------
   0 C :    0.007306
   1 O :    0.000169
   2 C :   -0.083051
   3 C :    0.007895
   4 H :   -0.030385
   5 H :    0.026211
   6 H :    0.035138
   7 H :    0.036717

  Mayer bond orders larger than 0.100000
B(  0-C ,  1-O ) :   2.1966 B(  0-C ,  2-C ) :   1.0374 B(  0-C ,  4-H ) :   0.9345
B(  2-C ,  3-C ) :   2.0104 B(  2-C ,  5-H ) :   0.9430 B(  3-C ,  6-H ) :   0.9231
B(  3-C ,  7-H ) :   0.9358

-----------------------------------------------------------------------------
         ABSORPTION SPECTRUM VIA TRANSITION ELECTRIC DIPOLE MOMENTS
-----------------------------------------------------------------------------
State   Energy    Wavelength  fosc         T2        TX        TY        TZ
        (cm-1)      (nm)                 (au**2)    (au)      (au)      (au)
-----------------------------------------------------------------------------
   1   28696.7    348.5   0.000057203   0.00066   0.01561   0.01695   0.01119

FINAL SINGLE POINT ENERGY      -191.653537706180

DIPOLE MOMENT
-------------
                                X             Y             Z
Electronic contribution:     -2.08204      -1.66103      -0.26340
Nuclear contribution   :      2.25657       2.52789       0.33934
                        -----------------------------------------
Total Dipole Moment    :      0.17454       0.86686       0.07594
                        -----------------------------------------
Magnitude (a.u.)       :      0.88751
Magnitude (Debye)      :      2.25587

Rotational constants in cm-1:     0.752957     0.217338     0.168817
Rotational constants in MHz : 22573.087777  6515.619049  5061.013036

                             ****ORCA TERMINATED NORMALLY****
TOTAL RUN TIME: 0 days 0 hours 3 minutes 28 seconds 17 msec
