                         Program Version 5.0.3 -  RELEASE  -
|  1> ! HF-3c
|  2> !TightSCF
|  3> %scf
|  4>  ConvForced true
|  5>  convergence tight
|  6>  MaxIter 500
|  7> end
|  8>
|  9> %tddft
| 10>  nroots 1
| 11> end
| 12>
| 13> # 	31582
| 14> * xyz 0 1
| 15> 		C   -0.521527  -0.401690  -0.071726
| 16> 		O   -0.548115  -1.599882   0.051085
| 17> 		C    0.556446   0.446151   0.019834
| 18> 		C    1.793681  -0.189851  -0.024261
| 19> 		H   -1.587412  -0.020450  -0.056725
| 20> 		H    0.527757   1.423676   0.198491
| 21> 		H    2.051369  -1.384062  -0.346317
| 22> 		H    2.879528   0.364725   0.334530
| 23> *
| 24>
| 25>                          ****END OF INPUT****

CARTESIAN COORDINATES (ANGSTROEM)
---------------------------------
  C     -0.521527   -0.401690   -0.071726
  O     -0.548115   -1.599882    0.051085
  C      0.556446    0.446151    0.019834
  C      1.793681   -0.189851   -0.024261
  H     -1.587412   -0.020450   -0.056725
  H      0.527757    1.423676    0.198491
  H      2.051369   -1.384062   -0.346317
  H      2.879528    0.364725    0.334530

 Total Charge           Charge          ....    0
 Multiplicity           Mult            ....    1
 Number of Electrons    NEL             ....   30
 Basis Dimension        Dim             ....   24

ORBITAL ENERGIES
----------------

  NO   OCC          E(Eh)            E(eV)
   0   2.0000     -20.327176      -553.1306
   1   2.0000     -11.281202      -306.9771
   2   2.0000     -11.201883      -304.8187
   3   2.0000     -11.183186      -304.3099
   4   2.0000      -1.389178       -37.8015
   5   2.0000      -1.077050       -29.3080
   6   2.0000      -0.868628       -23.6366
   7   2.0000      -0.735217       -20.0063
   8   2.0000      -0.708448       -19.2779
   9   2.0000      -0.597635       -16.2625
  10   2.0000      -0.560839       -15.2612
  11   2.0000      -0.538770       -14.6607
  12   2.0000      -0.499293       -13.5864
  13   2.0000      -0.393552       -10.7091
  14   2.0000      -0.368497       -10.0273
  15   0.0000       0.124153         3.3784
  16   0.0000       0.320201         8.7131
  17   0.0000       0.464742        12.6463
  18   0.0000       0.474590        12.9142
  19   0.0000       0.641764        17.4633

MULLIKEN ATOMIC CHARGES
-----------------------
   0 C :    0.152834
   1 O :   -0.376028
   2 C :   -0.246456
   3 C :   -0.116519
   4 H :    0.129794
   5 H :    0.151133
   6 H :    0.165458
   7 H :    0.139784
Sum of atomic charges:    0.0000000

LOEWDIN ATOMIC CHARGES
----------------------
   0 C :    0.136924
   1 O :   -0.287943
   2 C :   -0.196661
   3 C :   -0.036777
   4 H :    0.068642
   5 H :    0.091753
   6 H :    0.122641
   7 H :    0.101421

  Mayer bond orders larger than 0.100000
B(  0-C ,  1-O ) :   1.8495 B(  0-C ,  2-C ) :   1.0976 B(  0-C ,  4-H ) :   0.9276
B(  2-C ,  3-C ) :   1.8554 B(  2-C ,  5-H ) :   0.9592 B(  3-C ,  6-H ) :   0.9529
B(  3-C ,  7-H ) :   0.9606

-----------------------------------------------------------------------------
         ABSORPTION SPECTRUM VIA TRANSITION ELECTRIC DIPOLE MOMENTS
-----------------------------------------------------------------------------
State   Energy    Wavelength  fosc         T2        TX        TY        TZ
        (cm-1)      (nm)                 (au**2)    (au)      (au)      (au)
-----------------------------------------------------------------------------
   1   31160.5    320.9   0.000062140   0.00066   0.00651   0.00207   0.02469

Dispersion correction           -0.025669729
FINAL SINGLE POINT ENERGY      -189.270367636232

DIPOLE MOMENT
-------------
                                X             Y             Z
Electronic contribution:     -1.71102      -1.35873      -0.15950
Nuclear contribution   :      2.47494       2.14792       0.12044
                        -----------------------------------------
Total Dipole Moment    :      0.76391       0.78919      -0.03907
                        -----------------------------------------
Magnitude (a.u.)       :      1.09905
Magnitude (Debye)      :      2.79356

Rotational constants in cm-1:     0.715303     0.225610     0.172892
Rotational constants in MHz : 21444.241672  6763.621544  5183.161797

                             ****ORCA TERMINATED NORMALLY****
TOTAL RUN TIME: 0 days 0 hours 0 minutes 10 seconds 911 msec
