                         Program Version 5.0.3 -  RELEASE  -
|  1> ! HF-3c
|  2> !TightSCF
|  3> %scf
|  4>  ConvForced true
|  5>  convergence tight
|  6>  MaxIter 500
|  7> end
|  8>
|  9> %tddft
| 10>  nroots 1
| 11> end
| 12>
| 13> # 	2517
| 14> * xyz 0 1
| 15> 		C   -1.128540  -0.436189   0.002798
| 16> 		O   -2.066705  -0.531718   0.916406
| 17> 		C    0.064078   0.468297   0.265742
| 18> 		C    1.212193   0.157094  -0.235058
| 19> 		H   -1.281716  -0.713006  -1.005806
| 20> 		H   -0.181413   1.135981   1.142299
| 21> 		H    1.261162  -0.846474  -0.951600
| 22> 		H    2.152755   0.694075  -0.056688
| 23> *
| 24>
| 25>                          ****END OF INPUT****

CARTESIAN COORDINATES (ANGSTROEM)
---------------------------------
  C     -1.128540   -0.436189    0.002798
  O     -2.066705   -0.531718    0.916406
  C      0.064078    0.468297    0.265742
  C      1.212193    0.157094   -0.235058
  H     -1.281716   -0.713006   -1.005806
  H     -0.181413    1.135981    1.142299
  H      1.261162   -0.846474   -0.951600
  H      2.152755    0.694075   -0.056688

 Total Charge           Charge          ....    0
 Multiplicity           Mult            ....    1
 Number of Electrons    NEL             ....   30
 Basis Dimension        Dim             ....   24

ORBITAL ENERGIES
----------------

  NO   OCC          E(Eh)            E(eV)
   0   2.0000     -20.342540      -553.5486
   1   2.0000     -11.272580      -306.7425
   2   2.0000     -11.190918      -304.5204
   3   2.0000     -11.190024      -304.4960
   4   2.0000      -1.331426       -36.2299
   5   2.0000      -1.085524       -29.5386
   6   2.0000      -0.874625       -23.7998
   7   2.0000      -0.766473       -20.8568
   8   2.0000      -0.647434       -17.6176
   9   2.0000      -0.633081       -17.2270
  10   2.0000      -0.565186       -15.3795
  11   2.0000      -0.510298       -13.8859
  12   2.0000      -0.490875       -13.3574
  13   2.0000      -0.413794       -11.2599
  14   2.0000      -0.394496       -10.7348
  15   0.0000       0.129464         3.5229
  16   0.0000       0.274833         7.4786
  17   0.0000       0.462638        12.5890
  18   0.0000       0.575543        15.6613
  19   0.0000       0.620345        16.8805

MULLIKEN ATOMIC CHARGES
-----------------------
   0 C :    0.133423
   1 O :   -0.331819
   2 C :   -0.174713
   3 C :   -0.222286
   4 H :    0.142395
   5 H :    0.164017
   6 H :    0.142681
   7 H :    0.146302
Sum of atomic charges:   -0.0000000

LOEWDIN ATOMIC CHARGES
----------------------
   0 C :    0.140503
   1 O :   -0.265159
   2 C :   -0.127191
   3 C :   -0.136984
   4 H :    0.078159
   5 H :    0.111379
   6 H :    0.103590
   7 H :    0.095703

  Mayer bond orders larger than 0.100000
B(  0-C ,  1-O ) :   1.9083 B(  0-C ,  2-C ) :   1.0142 B(  0-C ,  4-H ) :   0.9388
B(  2-C ,  3-C ) :   1.9734 B(  2-C ,  5-H ) :   0.9451 B(  3-C ,  6-H ) :   0.9536
B(  3-C ,  7-H ) :   0.9599

-----------------------------------------------------------------------------
         ABSORPTION SPECTRUM VIA TRANSITION ELECTRIC DIPOLE MOMENTS
-----------------------------------------------------------------------------
State   Energy    Wavelength  fosc         T2        TX        TY        TZ
        (cm-1)      (nm)                 (au**2)    (au)      (au)      (au)
-----------------------------------------------------------------------------
   1   27674.0    361.3   0.000404670   0.00481  -0.06383  -0.02535  -0.00985

Dispersion correction           -0.025273862
FINAL SINGLE POINT ENERGY      -189.325720550445

DIPOLE MOMENT
-------------
                                X             Y             Z
Electronic contribution:     -2.84749      -0.54187       1.08285
Nuclear contribution   :      3.77022       0.64661      -1.75757
                        -----------------------------------------
Total Dipole Moment    :      0.92273       0.10474      -0.67472
                        -----------------------------------------
Magnitude (a.u.)       :      1.14789
Magnitude (Debye)      :      2.91770

Rotational constants in cm-1:     1.315304     0.153570     0.141901
Rotational constants in MHz : 39431.827119  4603.914301  4254.092874

                             ****ORCA TERMINATED NORMALLY****
TOTAL RUN TIME: 0 days 0 hours 0 minutes 12 seconds 377 msec
