                         Program Version 5.0.3 -  RELEASE  -
|  1> ! B3LYP cc-pVDZ
|  2> !TightSCF
|  3> %scf
|  4>  ConvForced true
|  5>  convergence tight
|  6>  MaxIter 500
|  7> end
|  8>
|  9> %tddft
| 10>  nroots 1
| 11> end
| 12>
| 13> # 	1329
| 14> * xyz 0 1
| 15> 		C   -1.195645  -0.337947  -0.031179
| 16> 		O   -1.777215  -0.984066  -0.848581
| 17> 		C    0.018675   0.396267  -0.290366
| 18> 		C    1.171563   0.045470   0.220159
| 19> 		H   -1.499988  -0.420192   1.130624
| 20> 		H   -0.068307   1.374791  -0.977834
| 21> 		H    1.302976  -0.667836   0.775746
| 22> 		H    2.067328   0.621949   0.058633
| 23> *
| 24>
| 25>                          ****END OF INPUT****

CARTESIAN COORDINATES (ANGSTROEM)
---------------------------------
  C     -1.195645   -0.337947   -0.031179
  O     -1.777215   -0.984066   -0.848581
  C      0.018675    0.396267   -0.290366
  C      1.171563    0.045470    0.220159
  H     -1.499988   -0.420192    1.130624
  H     -0.068307    1.374791   -0.977834
  H      1.302976   -0.667836    0.775746
  H      2.067328    0.621949    0.058633

 Total Charge           Charge          ....    0
 Multiplicity           Mult            ....    1
 Number of Electrons    NEL             ....   30
 Basis Dimension        Dim             ....   76

ORBITAL ENERGIES
----------------

  NO   OCC          E(Eh)            E(eV)
   0   2.0000     -19.146671      -521.0074
   1   2.0000     -10.284290      -279.8497
   2   2.0000     -10.212347      -277.8921
   3   2.0000     -10.187797      -277.2240
   4   2.0000      -1.063321       -28.9344
   5   2.0000      -0.811083       -22.0707
   6   2.0000      -0.662469       -18.0267
   7   2.0000      -0.559808       -15.2331
   8   2.0000      -0.491572       -13.3763
   9   2.0000      -0.474413       -12.9094
  10   2.0000      -0.444712       -12.1012
  11   2.0000      -0.400180       -10.8894
  12   2.0000      -0.375717       -10.2238
  13   2.0000      -0.291965        -7.9448
  14   2.0000      -0.257130        -6.9969
  15   0.0000      -0.047738        -1.2990
  16   0.0000       0.007503         0.2042
  17   0.0000       0.073524         2.0007
  18   0.0000       0.089000         2.4218
  19   0.0000       0.116471         3.1693

MULLIKEN ATOMIC CHARGES
-----------------------
   0 C :    0.143705
   1 O :   -0.161523
   2 C :   -0.136617
   3 C :    0.179749
   4 H :   -0.014390
   5 H :    0.042208
   6 H :   -0.073436
   7 H :    0.020305
Sum of atomic charges:    0.0000000

LOEWDIN ATOMIC CHARGES
----------------------
   0 C :   -0.049958
   1 O :    0.028792
   2 C :   -0.055704
   3 C :    0.015385
   4 H :   -0.004484
   5 H :    0.058777
   6 H :   -0.030644
   7 H :    0.037836

  Mayer bond orders larger than 0.100000
B(  0-C ,  1-O ) :   2.2320 B(  0-C ,  2-C ) :   1.0022 B(  0-C ,  4-H ) :   0.8961
B(  2-C ,  3-C ) :   2.0427 B(  2-C ,  5-H ) :   0.9207 B(  3-C ,  6-H ) :   0.9356
B(  3-C ,  7-H ) :   0.9426

-----------------------------------------------------------------------------
         ABSORPTION SPECTRUM VIA TRANSITION ELECTRIC DIPOLE MOMENTS
-----------------------------------------------------------------------------
State   Energy    Wavelength  fosc         T2        TX        TY        TZ
        (cm-1)      (nm)                 (au**2)    (au)      (au)      (au)
-----------------------------------------------------------------------------
   1   32209.9    310.5   0.000402007   0.00411   0.03503   0.00247   0.05362

FINAL SINGLE POINT ENERGY      -191.610667054333

DIPOLE MOMENT
-------------
                                X             Y             Z
Electronic contribution:     -2.80102      -1.22649      -1.35750
Nuclear contribution   :      3.45736       1.75065       1.84089
                        -----------------------------------------
Total Dipole Moment    :      0.65634       0.52416       0.48339
                        -----------------------------------------
Magnitude (a.u.)       :      0.96912
Magnitude (Debye)      :      2.46330

Rotational constants in cm-1:     1.157197     0.164933     0.160856
Rotational constants in MHz : 34691.904394  4944.559356  4822.340109

                             ****ORCA TERMINATED NORMALLY****
TOTAL RUN TIME: 0 days 0 hours 3 minutes 26 seconds 432 msec
