                         Program Version 5.0.3 -  RELEASE  -
|  1> ! B3LYP cc-pVDZ
|  2> !TightSCF
|  3> %scf
|  4>  ConvForced true
|  5>  convergence tight
|  6>  MaxIter 500
|  7> end
|  8>
|  9> %tddft
| 10>  nroots 1
| 11> end
| 12>
| 13> # 	22192
| 14> * xyz 0 1
| 15> 		C   -0.598213  -0.426925  -0.005035
| 16> 		O   -0.582175  -1.679355  -0.017749
| 17> 		C    0.665293   0.431725   0.000995
| 18> 		C    1.819220  -0.091608   0.010366
| 19> 		H   -1.502857   0.263446   0.293456
| 20> 		H    0.492140   1.482996  -0.189065
| 21> 		H    1.928943  -1.327835   0.164566
| 22> 		H    2.831488   0.538660  -0.082048
| 23> *
| 24>
| 25>                          ****END OF INPUT****

CARTESIAN COORDINATES (ANGSTROEM)
---------------------------------
  C     -0.598213   -0.426925   -0.005035
  O     -0.582175   -1.679355   -0.017749
  C      0.665293    0.431725    0.000995
  C      1.819220   -0.091608    0.010366
  H     -1.502857    0.263446    0.293456
  H      0.492140    1.482996   -0.189065
  H      1.928943   -1.327835    0.164566
  H      2.831488    0.538660   -0.082048

 Total Charge           Charge          ....    0
 Multiplicity           Mult            ....    1
 Number of Electrons    NEL             ....   30
 Basis Dimension        Dim             ....   76

ORBITAL ENERGIES
----------------

  NO   OCC          E(Eh)            E(eV)
   0   2.0000     -19.150148      -521.1020
   1   2.0000     -10.290995      -280.0322
   2   2.0000     -10.222931      -278.1801
   3   2.0000     -10.198888      -277.5259
   4   2.0000      -1.029501       -28.0141
   5   2.0000      -0.802575       -21.8392
   6   2.0000      -0.645743       -17.5716
   7   2.0000      -0.527128       -14.3439
   8   2.0000      -0.494917       -13.4674
   9   2.0000      -0.443791       -12.0762
  10   2.0000      -0.424649       -11.5553
  11   2.0000      -0.387393       -10.5415
  12   2.0000      -0.356742        -9.7074
  13   2.0000      -0.298776        -8.1301
  14   2.0000      -0.260997        -7.1021
  15   0.0000      -0.071448        -1.9442
  16   0.0000       0.049484         1.3465
  17   0.0000       0.060988         1.6596
  18   0.0000       0.064843         1.7645
  19   0.0000       0.110175         2.9980

MULLIKEN ATOMIC CHARGES
-----------------------
   0 C :    0.168191
   1 O :   -0.211229
   2 C :   -0.068954
   3 C :   -0.014036
   4 H :    0.010346
   5 H :   -0.009082
   6 H :    0.071261
   7 H :    0.053504
Sum of atomic charges:   -0.0000000

LOEWDIN ATOMIC CHARGES
----------------------
   0 C :    0.001662
   1 O :   -0.033584
   2 C :   -0.105696
   3 C :   -0.009971
   4 H :    0.006705
   5 H :    0.028296
   6 H :    0.061960
   7 H :    0.050628

  Mayer bond orders larger than 0.100000
B(  0-C ,  1-O ) :   2.1557 B(  0-C ,  2-C ) :   1.0271 B(  0-C ,  4-H ) :   0.8999
B(  2-C ,  3-C ) :   1.9917 B(  2-C ,  5-H ) :   0.9393 B(  3-C ,  6-H ) :   0.9096
B(  3-C ,  7-H ) :   0.9297

-----------------------------------------------------------------------------
         ABSORPTION SPECTRUM VIA TRANSITION ELECTRIC DIPOLE MOMENTS
-----------------------------------------------------------------------------
State   Energy    Wavelength  fosc         T2        TX        TY        TZ
        (cm-1)      (nm)                 (au**2)    (au)      (au)      (au)
-----------------------------------------------------------------------------
   1   27947.8    357.8   0.000709901   0.00836   0.07297  -0.01497  -0.05305

FINAL SINGLE POINT ENERGY      -191.648669068821

DIPOLE MOMENT
-------------
                                X             Y             Z
Electronic contribution:     -2.00786      -1.75749      -0.17291
Nuclear contribution   :      2.35870       2.68400       0.17641
                        -----------------------------------------
Total Dipole Moment    :      0.35083       0.92651       0.00350
                        -----------------------------------------
Magnitude (a.u.)       :      0.99071
Magnitude (Debye)      :      2.51819

Rotational constants in cm-1:     0.742568     0.204106     0.160599
Rotational constants in MHz : 22261.633012  6118.940428  4814.633855

                             ****ORCA TERMINATED NORMALLY****
TOTAL RUN TIME: 0 days 0 hours 3 minutes 12 seconds 900 msec
