                         Program Version 5.0.3 -  RELEASE  -
|  1> ! B3LYP cc-pVDZ
|  2> !TightSCF
|  3> %scf
|  4>  ConvForced true
|  5>  convergence tight
|  6>  MaxIter 500
|  7> end
|  8>
|  9> %tddft
| 10>  nroots 1
| 11> end
| 12>
| 13> # 	29721
| 14> * xyz 0 1
| 15> 		C   -0.564181  -0.423273  -0.039582
| 16> 		O   -0.612633  -1.654116   0.017879
| 17> 		C    0.615854   0.395185   0.005917
| 18> 		C    1.883680  -0.106606   0.015584
| 19> 		H   -1.547369   0.342828   0.074038
| 20> 		H    0.183284   1.360032   0.049853
| 21> 		H    2.200815  -1.063963  -0.168420
| 22> 		H    2.733785   0.529714  -0.021020
| 23> *
| 24>
| 25>                          ****END OF INPUT****

CARTESIAN COORDINATES (ANGSTROEM)
---------------------------------
  C     -0.564181   -0.423273   -0.039582
  O     -0.612633   -1.654116    0.017879
  C      0.615854    0.395185    0.005917
  C      1.883680   -0.106606    0.015584
  H     -1.547369    0.342828    0.074038
  H      0.183284    1.360032    0.049853
  H      2.200815   -1.063963   -0.168420
  H      2.733785    0.529714   -0.021020

 Total Charge           Charge          ....    0
 Multiplicity           Mult            ....    1
 Number of Electrons    NEL             ....   30
 Basis Dimension        Dim             ....   76

ORBITAL ENERGIES
----------------

  NO   OCC          E(Eh)            E(eV)
   0   2.0000     -19.142240      -520.8868
   1   2.0000     -10.280507      -279.7468
   2   2.0000     -10.220480      -278.1134
   3   2.0000     -10.211142      -277.8593
   4   2.0000      -1.034048       -28.1379
   5   2.0000      -0.803224       -21.8568
   6   2.0000      -0.684226       -18.6187
   7   2.0000      -0.537566       -14.6279
   8   2.0000      -0.501771       -13.6539
   9   2.0000      -0.462178       -12.5765
  10   2.0000      -0.414429       -11.2772
  11   2.0000      -0.395680       -10.7670
  12   2.0000      -0.385532       -10.4909
  13   2.0000      -0.290121        -7.8946
  14   2.0000      -0.255218        -6.9448
  15   0.0000      -0.085477        -2.3259
  16   0.0000       0.049042         1.3345
  17   0.0000       0.061863         1.6834
  18   0.0000       0.089936         2.4473
  19   0.0000       0.124855         3.3975

MULLIKEN ATOMIC CHARGES
-----------------------
   0 C :    0.114458
   1 O :   -0.196878
   2 C :   -0.049012
   3 C :    0.128936
   4 H :   -0.027102
   5 H :   -0.023224
   6 H :    0.023404
   7 H :    0.029419
Sum of atomic charges:    0.0000000

LOEWDIN ATOMIC CHARGES
----------------------
   0 C :   -0.046276
   1 O :   -0.019100
   2 C :   -0.068277
   3 C :    0.060439
   4 H :   -0.005143
   5 H :    0.026146
   6 H :    0.022103
   7 H :    0.030109

  Mayer bond orders larger than 0.100000
B(  0-C ,  1-O ) :   2.1749 B(  0-C ,  2-C ) :   1.1042 B(  0-C ,  4-H ) :   0.8793
B(  1-O ,  3-C ) :   0.1090 B(  2-C ,  3-C ) :   1.9013 B(  2-C ,  5-H ) :   0.9518
B(  3-C ,  6-H ) :   0.9479 B(  3-C ,  7-H ) :   0.9502

-----------------------------------------------------------------------------
         ABSORPTION SPECTRUM VIA TRANSITION ELECTRIC DIPOLE MOMENTS
-----------------------------------------------------------------------------
State   Energy    Wavelength  fosc         T2        TX        TY        TZ
        (cm-1)      (nm)                 (au**2)    (au)      (au)      (au)
-----------------------------------------------------------------------------
   1   24962.6    400.6   0.000135931   0.00179   0.00903   0.01206   0.03957

FINAL SINGLE POINT ENERGY      -191.664445659184

DIPOLE MOMENT
-------------
                                X             Y             Z
Electronic contribution:     -1.56086      -2.02182      -0.00042
Nuclear contribution   :      2.19542       2.87985      -0.06142
                        -----------------------------------------
Total Dipole Moment    :      0.63456       0.85803      -0.06184
                        -----------------------------------------
Magnitude (a.u.)       :      1.06898
Magnitude (Debye)      :      2.71713

Rotational constants in cm-1:     0.748634     0.203769     0.160368
Rotational constants in MHz : 22443.496103  6108.828732  4807.705434

                             ****ORCA TERMINATED NORMALLY****
TOTAL RUN TIME: 0 days 0 hours 3 minutes 11 seconds 344 msec
