                         Program Version 5.0.3 -  RELEASE  -
|  1> ! HF-3c
|  2> !TightSCF
|  3> %scf
|  4>  ConvForced true
|  5>  convergence tight
|  6>  MaxIter 500
|  7> end
|  8>
|  9> %tddft
| 10>  nroots 1
| 11> end
| 12>
| 13> # 	4909
| 14> * xyz 0 1
| 15> 		C   -1.139796  -0.339300   0.024528
| 16> 		O   -1.701183  -1.032538   0.806666
| 17> 		C   -0.008208   0.518420   0.217841
| 18> 		C    1.238634   0.005141  -0.110104
| 19> 		H   -1.492459  -0.301073  -0.946319
| 20> 		H   -0.194107   1.531592   0.664733
| 21> 		H    1.223579  -1.019907  -0.678978
| 22> 		H    2.086024   0.644413   0.061101
| 23> *
| 24>
| 25>                          ****END OF INPUT****

CARTESIAN COORDINATES (ANGSTROEM)
---------------------------------
  C     -1.139796   -0.339300    0.024528
  O     -1.701183   -1.032538    0.806666
  C     -0.008208    0.518420    0.217841
  C      1.238634    0.005141   -0.110104
  H     -1.492459   -0.301073   -0.946319
  H     -0.194107    1.531592    0.664733
  H      1.223579   -1.019907   -0.678978
  H      2.086024    0.644413    0.061101

 Total Charge           Charge          ....    0
 Multiplicity           Mult            ....    1
 Number of Electrons    NEL             ....   30
 Basis Dimension        Dim             ....   24

ORBITAL ENERGIES
----------------

  NO   OCC          E(Eh)            E(eV)
   0   2.0000     -20.383614      -554.6663
   1   2.0000     -11.305937      -307.6502
   2   2.0000     -11.183816      -304.3271
   3   2.0000     -11.177910      -304.1664
   4   2.0000      -1.426225       -38.8096
   5   2.0000      -1.075085       -29.2546
   6   2.0000      -0.890639       -24.2355
   7   2.0000      -0.770863       -20.9762
   8   2.0000      -0.683885       -18.6095
   9   2.0000      -0.638130       -17.3644
  10   2.0000      -0.601802       -16.3759
  11   2.0000      -0.552492       -15.0341
  12   2.0000      -0.507690       -13.8150
  13   2.0000      -0.420211       -11.4345
  14   2.0000      -0.381424       -10.3791
  15   0.0000       0.184092         5.0094
  16   0.0000       0.207259         5.6398
  17   0.0000       0.540835        14.7169
  18   0.0000       0.622677        16.9439
  19   0.0000       0.654782        17.8175

MULLIKEN ATOMIC CHARGES
-----------------------
   0 C :    0.156544
   1 O :   -0.340092
   2 C :   -0.166206
   3 C :   -0.229256
   4 H :    0.133933
   5 H :    0.154595
   6 H :    0.146401
   7 H :    0.144082
Sum of atomic charges:   -0.0000000

LOEWDIN ATOMIC CHARGES
----------------------
   0 C :    0.143599
   1 O :   -0.238418
   2 C :   -0.126428
   3 C :   -0.143492
   4 H :    0.063319
   5 H :    0.104978
   6 H :    0.103333
   7 H :    0.093110

  Mayer bond orders larger than 0.100000
B(  0-C ,  1-O ) :   1.9390 B(  0-C ,  2-C ) :   1.0054 B(  0-C ,  4-H ) :   0.9217
B(  2-C ,  3-C ) :   1.9786 B(  2-C ,  5-H ) :   0.9479 B(  3-C ,  6-H ) :   0.9628
B(  3-C ,  7-H ) :   0.9653

-----------------------------------------------------------------------------
         ABSORPTION SPECTRUM VIA TRANSITION ELECTRIC DIPOLE MOMENTS
-----------------------------------------------------------------------------
State   Energy    Wavelength  fosc         T2        TX        TY        TZ
        (cm-1)      (nm)                 (au**2)    (au)      (au)      (au)
-----------------------------------------------------------------------------
   1   35407.1    282.4   0.000013859   0.00013  -0.00748  -0.00653  -0.00549

Dispersion correction           -0.025535405
FINAL SINGLE POINT ENERGY      -189.295535817991

DIPOLE MOMENT
-------------
                                X             Y             Z
Electronic contribution:     -2.54909      -1.12023       1.13826
Nuclear contribution   :      3.14344       1.69037      -1.74503
                        -----------------------------------------
Total Dipole Moment    :      0.59435       0.57013      -0.60676
                        -----------------------------------------
Magnitude (a.u.)       :      1.02297
Magnitude (Debye)      :      2.60019

Rotational constants in cm-1:     1.006159     0.171087     0.161494
Rotational constants in MHz : 30163.873640  5129.052140  4841.477885

                             ****ORCA TERMINATED NORMALLY****
TOTAL RUN TIME: 0 days 0 hours 0 minutes 16 seconds 79 msec
