                         Program Version 5.0.3 -  RELEASE  -
|  1> ! HF-3c
|  2> !TightSCF
|  3> %scf
|  4>  ConvForced true
|  5>  convergence tight
|  6>  MaxIter 500
|  7> end
|  8>
|  9> %tddft
| 10>  nroots 1
| 11> end
| 12>
| 13> # 	3122
| 14> * xyz 0 1
| 15> 		C   -1.194490  -0.387895   0.003927
| 16> 		O   -1.325597  -1.504565  -0.303740
| 17> 		C    0.035263   0.514105  -0.100839
| 18> 		C    1.278577   0.024651   0.092007
| 19> 		H   -2.226122   0.143677   0.490970
| 20> 		H   -0.054338   1.503743  -0.433601
| 21> 		H    1.468463  -1.001647   0.226047
| 22> 		H    2.009918   0.720504   0.006649
| 23> *
| 24>
| 25>                          ****END OF INPUT****

CARTESIAN COORDINATES (ANGSTROEM)
---------------------------------
  C     -1.194490   -0.387895    0.003927
  O     -1.325597   -1.504565   -0.303740
  C      0.035263    0.514105   -0.100839
  C      1.278577    0.024651    0.092007
  H     -2.226122    0.143677    0.490970
  H     -0.054338    1.503743   -0.433601
  H      1.468463   -1.001647    0.226047
  H      2.009918    0.720504    0.006649

 Total Charge           Charge          ....    0
 Multiplicity           Mult            ....    1
 Number of Electrons    NEL             ....   30
 Basis Dimension        Dim             ....   24

ORBITAL ENERGIES
----------------

  NO   OCC          E(Eh)            E(eV)
   0   2.0000     -20.383728      -554.6694
   1   2.0000     -11.306397      -307.6627
   2   2.0000     -11.194436      -304.6161
   3   2.0000     -11.191349      -304.5321
   4   2.0000      -1.436465       -39.0882
   5   2.0000      -1.081144       -29.4194
   6   2.0000      -0.877854       -23.8876
   7   2.0000      -0.747448       -20.3391
   8   2.0000      -0.705152       -19.1882
   9   2.0000      -0.618661       -16.8346
  10   2.0000      -0.614942       -16.7334
  11   2.0000      -0.569843       -15.5062
  12   2.0000      -0.538644       -14.6573
  13   2.0000      -0.403295       -10.9742
  14   2.0000      -0.391885       -10.6637
  15   0.0000       0.150132         4.0853
  16   0.0000       0.276213         7.5162
  17   0.0000       0.484252        13.1772
  18   0.0000       0.596805        16.2399
  19   0.0000       0.678137        18.4530

MULLIKEN ATOMIC CHARGES
-----------------------
   0 C :    0.203240
   1 O :   -0.363856
   2 C :   -0.165766
   3 C :   -0.245260
   4 H :    0.120261
   5 H :    0.148207
   6 H :    0.157723
   7 H :    0.145451
Sum of atomic charges:    0.0000000

LOEWDIN ATOMIC CHARGES
----------------------
   0 C :    0.156152
   1 O :   -0.250432
   2 C :   -0.119729
   3 C :   -0.138421
   4 H :    0.068579
   5 H :    0.092590
   6 H :    0.101643
   7 H :    0.089617

  Mayer bond orders larger than 0.100000
B(  0-C ,  1-O ) :   1.9451 B(  0-C ,  2-C ) :   0.9842 B(  0-C ,  4-H ) :   0.8986
B(  2-C ,  3-C ) :   1.9701 B(  2-C ,  5-H ) :   0.9604 B(  3-C ,  6-H ) :   0.9636
B(  3-C ,  7-H ) :   0.9668

-----------------------------------------------------------------------------
         ABSORPTION SPECTRUM VIA TRANSITION ELECTRIC DIPOLE MOMENTS
-----------------------------------------------------------------------------
State   Energy    Wavelength  fosc         T2        TX        TY        TZ
        (cm-1)      (nm)                 (au**2)    (au)      (au)      (au)
-----------------------------------------------------------------------------
   1   35759.7    279.6   0.000250945   0.00231   0.04677  -0.00914   0.00628

Dispersion correction           -0.025099017
FINAL SINGLE POINT ENERGY      -189.301449114724

DIPOLE MOMENT
-------------
                                X             Y             Z
Electronic contribution:     -2.03518      -1.77859      -0.36796
Nuclear contribution   :      2.35197       2.66285       0.57851
                        -----------------------------------------
Total Dipole Moment    :      0.31679       0.88426       0.21055
                        -----------------------------------------
Magnitude (a.u.)       :      0.96260
Magnitude (Debye)      :      2.44674

Rotational constants in cm-1:     0.839576     0.186862     0.156337
Rotational constants in MHz : 25169.852179  5601.968651  4686.868533

                             ****ORCA TERMINATED NORMALLY****
TOTAL RUN TIME: 0 days 0 hours 0 minutes 12 seconds 379 msec
