                         Program Version 5.0.3 -  RELEASE  -
|  1> ! B3LYP cc-pVDZ
|  2> !TightSCF
|  3> %scf
|  4>  ConvForced true
|  5>  convergence tight
|  6>  MaxIter 500
|  7> end
|  8>
|  9> %tddft
| 10>  nroots 1
| 11> end
| 12>
| 13> # 	14961
| 14> * xyz 0 1
| 15> 		C   -1.159351  -0.326548  -0.014155
| 16> 		O   -1.124044  -1.526697  -0.137299
| 17> 		C    0.025450   0.570473  -0.048118
| 18> 		C    1.202821  -0.084343   0.066853
| 19> 		H   -2.211992   0.382486   0.131354
| 20> 		H   -0.050914   1.575281  -0.057299
| 21> 		H    1.256570  -1.193592   0.022420
| 22> 		H    2.117695   0.557609   0.002279
| 23> *
| 24>
| 25>                          ****END OF INPUT****

CARTESIAN COORDINATES (ANGSTROEM)
---------------------------------
  C     -1.159351   -0.326548   -0.014155
  O     -1.124044   -1.526697   -0.137299
  C      0.025450    0.570473   -0.048118
  C      1.202821   -0.084343    0.066853
  H     -2.211992    0.382486    0.131354
  H     -0.050914    1.575281   -0.057299
  H      1.256570   -1.193592    0.022420
  H      2.117695    0.557609    0.002279

 Total Charge           Charge          ....    0
 Multiplicity           Mult            ....    1
 Number of Electrons    NEL             ....   30
 Basis Dimension        Dim             ....   76

ORBITAL ENERGIES
----------------

  NO   OCC          E(Eh)            E(eV)
   0   2.0000     -19.146948      -521.0149
   1   2.0000     -10.288605      -279.9672
   2   2.0000     -10.218926      -278.0711
   3   2.0000     -10.200808      -277.5781
   4   2.0000      -1.053859       -28.6770
   5   2.0000      -0.798116       -21.7178
   6   2.0000      -0.645438       -17.5633
   7   2.0000      -0.545371       -14.8403
   8   2.0000      -0.498860       -13.5747
   9   2.0000      -0.451812       -12.2944
  10   2.0000      -0.414267       -11.2728
  11   2.0000      -0.401885       -10.9358
  12   2.0000      -0.388890       -10.5822
  13   2.0000      -0.288796        -7.8585
  14   2.0000      -0.257794        -7.0149
  15   0.0000      -0.070427        -1.9164
  16   0.0000       0.053023         1.4428
  17   0.0000       0.060819         1.6550
  18   0.0000       0.080014         2.1773
  19   0.0000       0.119863         3.2616

MULLIKEN ATOMIC CHARGES
-----------------------
   0 C :    0.141423
   1 O :   -0.179837
   2 C :   -0.038331
   3 C :    0.048512
   4 H :   -0.021533
   5 H :   -0.041165
   6 H :    0.055291
   7 H :    0.035641
Sum of atomic charges:   -0.0000000

LOEWDIN ATOMIC CHARGES
----------------------
   0 C :   -0.038788
   1 O :    0.002025
   2 C :   -0.069117
   3 C :    0.035033
   4 H :   -0.010220
   5 H :    0.005926
   6 H :    0.039468
   7 H :    0.035673

  Mayer bond orders larger than 0.100000
B(  0-C ,  1-O ) :   2.1888 B(  0-C ,  2-C ) :   1.0432 B(  0-C ,  4-H ) :   0.8768
B(  2-C ,  3-C ) :   1.9515 B(  2-C ,  5-H ) :   0.9530 B(  3-C ,  6-H ) :   0.9311
B(  3-C ,  7-H ) :   0.9433

-----------------------------------------------------------------------------
         ABSORPTION SPECTRUM VIA TRANSITION ELECTRIC DIPOLE MOMENTS
-----------------------------------------------------------------------------
State   Energy    Wavelength  fosc         T2        TX        TY        TZ
        (cm-1)      (nm)                 (au**2)    (au)      (au)      (au)
-----------------------------------------------------------------------------
   1   28711.4    348.3   0.000447139   0.00513   0.05100  -0.00822   0.04958

FINAL SINGLE POINT ENERGY      -191.658323219804

DIPOLE MOMENT
-------------
                                X             Y             Z
Electronic contribution:     -1.61163      -1.80141      -0.17119
Nuclear contribution   :      2.10361       2.64055       0.22785
                        -----------------------------------------
Total Dipole Moment    :      0.49198       0.83914       0.05665
                        -----------------------------------------
Magnitude (a.u.)       :      0.97438
Magnitude (Debye)      :      2.47667

Rotational constants in cm-1:     0.707368     0.222297     0.169702
Rotational constants in MHz : 21206.362948  6664.305908  5087.542247

                             ****ORCA TERMINATED NORMALLY****
TOTAL RUN TIME: 0 days 0 hours 3 minutes 23 seconds 626 msec
