                         Program Version 5.0.3 -  RELEASE  -
|  1> ! B3LYP cc-pVDZ
|  2> !TightSCF
|  3> %scf
|  4>  ConvForced true
|  5>  convergence tight
|  6>  MaxIter 500
|  7> end
|  8>
|  9> %tddft
| 10>  nroots 1
| 11> end
| 12>
| 13> # 	19105
| 14> * xyz 0 1
| 15> 		C   -1.174788  -0.263307  -0.053925
| 16> 		O   -1.301174  -1.409493  -0.509410
| 17> 		C    0.013746   0.558845  -0.160137
| 18> 		C    1.192587  -0.018564   0.114163
| 19> 		H   -1.963617   0.280854   0.655831
| 20> 		H   -0.171642   1.480334  -0.515284
| 21> 		H    1.297400  -1.127635   0.369328
| 22> 		H    2.183395   0.503088   0.034064
| 23> *
| 24>
| 25>                          ****END OF INPUT****

CARTESIAN COORDINATES (ANGSTROEM)
---------------------------------
  C     -1.174788   -0.263307   -0.053925
  O     -1.301174   -1.409493   -0.509410
  C      0.013746    0.558845   -0.160137
  C      1.192587   -0.018564    0.114163
  H     -1.963617    0.280854    0.655831
  H     -0.171642    1.480334   -0.515284
  H      1.297400   -1.127635    0.369328
  H      2.183395    0.503088    0.034064

 Total Charge           Charge          ....    0
 Multiplicity           Mult            ....    1
 Number of Electrons    NEL             ....   30
 Basis Dimension        Dim             ....   76

ORBITAL ENERGIES
----------------

  NO   OCC          E(Eh)            E(eV)
   0   2.0000     -19.144990      -520.9617
   1   2.0000     -10.283760      -279.8353
   2   2.0000     -10.220331      -278.1093
   3   2.0000     -10.201588      -277.5993
   4   2.0000      -1.033666       -28.1275
   5   2.0000      -0.803343       -21.8601
   6   2.0000      -0.658653       -17.9229
   7   2.0000      -0.549655       -14.9569
   8   2.0000      -0.499336       -13.5876
   9   2.0000      -0.450704       -12.2643
  10   2.0000      -0.439248       -11.9525
  11   2.0000      -0.383575       -10.4376
  12   2.0000      -0.372328       -10.1316
  13   2.0000      -0.288213        -7.8427
  14   2.0000      -0.256333        -6.9752
  15   0.0000      -0.058566        -1.5937
  16   0.0000       0.014822         0.4033
  17   0.0000       0.075537         2.0555
  18   0.0000       0.081476         2.2171
  19   0.0000       0.106902         2.9089

MULLIKEN ATOMIC CHARGES
-----------------------
   0 C :    0.139288
   1 O :   -0.204643
   2 C :   -0.001186
   3 C :    0.007725
   4 H :   -0.005511
   5 H :   -0.028625
   6 H :    0.053094
   7 H :    0.039859
Sum of atomic charges:    0.0000000

LOEWDIN ATOMIC CHARGES
----------------------
   0 C :   -0.014454
   1 O :   -0.023177
   2 C :   -0.058739
   3 C :    0.002726
   4 H :    0.001754
   5 H :    0.011723
   6 H :    0.045280
   7 H :    0.034887

  Mayer bond orders larger than 0.100000
B(  0-C ,  1-O ) :   2.1847 B(  0-C ,  2-C ) :   1.0425 B(  0-C ,  4-H ) :   0.8911
B(  2-C ,  3-C ) :   1.9722 B(  2-C ,  5-H ) :   0.9467 B(  3-C ,  6-H ) :   0.9402
B(  3-C ,  7-H ) :   0.9501

-----------------------------------------------------------------------------
         ABSORPTION SPECTRUM VIA TRANSITION ELECTRIC DIPOLE MOMENTS
-----------------------------------------------------------------------------
State   Energy    Wavelength  fosc         T2        TX        TY        TZ
        (cm-1)      (nm)                 (au**2)    (au)      (au)      (au)
-----------------------------------------------------------------------------
   1   29755.6    336.1   0.000079184   0.00088   0.00273   0.00696  -0.02864

FINAL SINGLE POINT ENERGY      -191.651097030626

DIPOLE MOMENT
-------------
                                X             Y             Z
Electronic contribution:     -2.06315      -1.41283      -0.82759
Nuclear contribution   :      2.52543       2.26036       1.09425
                        -----------------------------------------
Total Dipole Moment    :      0.46229       0.84753       0.26666
                        -----------------------------------------
Magnitude (a.u.)       :      1.00156
Magnitude (Debye)      :      2.54577

Rotational constants in cm-1:     0.758657     0.202492     0.167190
Rotational constants in MHz : 22743.970044  6070.550081  5012.227675

                             ****ORCA TERMINATED NORMALLY****
TOTAL RUN TIME: 0 days 0 hours 3 minutes 22 seconds 278 msec
