                         Program Version 5.0.3 -  RELEASE  -
|  1> ! HF-3c
|  2> !TightSCF
|  3> %scf
|  4>  ConvForced true
|  5>  convergence tight
|  6>  MaxIter 500
|  7> end
|  8>
|  9> %tddft
| 10>  nroots 1
| 11> end
| 12>
| 13> # 	31783
| 14> * xyz 0 1
| 15> 		C   -0.519808  -0.454471   0.035137
| 16> 		O   -0.622953  -1.645007  -0.020026
| 17> 		C    0.621830   0.399253  -0.033851
| 18> 		C    1.835438  -0.087149   0.025977
| 19> 		H   -1.495160   0.216515   0.034858
| 20> 		H    0.452526   1.535994   0.011323
| 21> 		H    1.970486  -1.156859   0.083625
| 22> 		H    2.845011   0.468836  -0.146396
| 23> *
| 24>
| 25>                          ****END OF INPUT****

CARTESIAN COORDINATES (ANGSTROEM)
---------------------------------
  C     -0.519808   -0.454471    0.035137
  O     -0.622953   -1.645007   -0.020026
  C      0.621830    0.399253   -0.033851
  C      1.835438   -0.087149    0.025977
  H     -1.495160    0.216515    0.034858
  H      0.452526    1.535994    0.011323
  H      1.970486   -1.156859    0.083625
  H      2.845011    0.468836   -0.146396

 Total Charge           Charge          ....    0
 Multiplicity           Mult            ....    1
 Number of Electrons    NEL             ....   30
 Basis Dimension        Dim             ....   24

ORBITAL ENERGIES
----------------

  NO   OCC          E(Eh)            E(eV)
   0   2.0000     -20.364511      -554.1465
   1   2.0000     -11.295660      -307.3705
   2   2.0000     -11.196560      -304.6739
   3   2.0000     -11.190410      -304.5065
   4   2.0000      -1.407102       -38.2892
   5   2.0000      -1.092650       -29.7325
   6   2.0000      -0.892149       -24.2766
   7   2.0000      -0.728780       -19.8311
   8   2.0000      -0.697703       -18.9855
   9   2.0000      -0.620035       -16.8720
  10   2.0000      -0.584121       -15.8947
  11   2.0000      -0.551227       -14.9997
  12   2.0000      -0.516657       -14.0590
  13   2.0000      -0.403493       -10.9796
  14   2.0000      -0.397912       -10.8277
  15   0.0000       0.130851         3.5606
  16   0.0000       0.329477         8.9655
  17   0.0000       0.499219        13.5844
  18   0.0000       0.603409        16.4196
  19   0.0000       0.624050        16.9813

MULLIKEN ATOMIC CHARGES
-----------------------
   0 C :    0.180827
   1 O :   -0.362196
   2 C :   -0.190689
   3 C :   -0.198908
   4 H :    0.119253
   5 H :    0.148487
   6 H :    0.152154
   7 H :    0.151073
Sum of atomic charges:    0.0000000

LOEWDIN ATOMIC CHARGES
----------------------
   0 C :    0.152445
   1 O :   -0.263657
   2 C :   -0.152403
   3 C :   -0.101687
   4 H :    0.062724
   5 H :    0.100519
   6 H :    0.097424
   7 H :    0.104634

  Mayer bond orders larger than 0.100000
B(  0-C ,  1-O ) :   1.8988 B(  0-C ,  2-C ) :   1.0430 B(  0-C ,  4-H ) :   0.9128
B(  2-C ,  3-C ) :   1.9317 B(  2-C ,  5-H ) :   0.9527 B(  3-C ,  6-H ) :   0.9586
B(  3-C ,  7-H ) :   0.9603

-----------------------------------------------------------------------------
         ABSORPTION SPECTRUM VIA TRANSITION ELECTRIC DIPOLE MOMENTS
-----------------------------------------------------------------------------
State   Energy    Wavelength  fosc         T2        TX        TY        TZ
        (cm-1)      (nm)                 (au**2)    (au)      (au)      (au)
-----------------------------------------------------------------------------
   1   32798.0    304.9   0.000124536   0.00125  -0.03234   0.00110  -0.01425

Dispersion correction           -0.025742295
FINAL SINGLE POINT ENERGY      -189.323872692832

DIPOLE MOMENT
-------------
                                X             Y             Z
Electronic contribution:     -1.86923      -1.79857       0.04446
Nuclear contribution   :      2.38079       2.78575      -0.01521
                        -----------------------------------------
Total Dipole Moment    :      0.51157       0.98718       0.02925
                        -----------------------------------------
Magnitude (a.u.)       :      1.11224
Magnitude (Debye)      :      2.82709

Rotational constants in cm-1:     0.810526     0.205485     0.164160
Rotational constants in MHz : 24298.950767  6160.284490  4921.384655

                             ****ORCA TERMINATED NORMALLY****
TOTAL RUN TIME: 0 days 0 hours 0 minutes 15 seconds 528 msec
