                         Program Version 5.0.3 -  RELEASE  -
|  1> ! B3LYP cc-pVDZ
|  2> !TightSCF
|  3> %scf
|  4>  ConvForced true
|  5>  convergence tight
|  6>  MaxIter 500
|  7> end
|  8>
|  9> %tddft
| 10>  nroots 1
| 11> end
| 12>
| 13> # 	10150
| 14> * xyz 0 1
| 15> 		C   -1.205965  -0.430169  -0.057931
| 16> 		O   -1.865145  -1.051367   0.706590
| 17> 		C   -0.042576   0.408635   0.263380
| 18> 		C    1.213207   0.036528  -0.162538
| 19> 		H   -1.390572  -0.477473  -1.142018
| 20> 		H   -0.137444   1.442750   1.010745
| 21> 		H    1.330188  -0.757138  -0.719218
| 22> 		H    2.082958   0.817204   0.073781
| 23> *
| 24>
| 25>                          ****END OF INPUT****

CARTESIAN COORDINATES (ANGSTROEM)
---------------------------------
  C     -1.205965   -0.430169   -0.057931
  O     -1.865145   -1.051367    0.706590
  C     -0.042576    0.408635    0.263380
  C      1.213207    0.036528   -0.162538
  H     -1.390572   -0.477473   -1.142018
  H     -0.137444    1.442750    1.010745
  H      1.330188   -0.757138   -0.719218
  H      2.082958    0.817204    0.073781

 Total Charge           Charge          ....    0
 Multiplicity           Mult            ....    1
 Number of Electrons    NEL             ....   30
 Basis Dimension        Dim             ....   76

ORBITAL ENERGIES
----------------

  NO   OCC          E(Eh)            E(eV)
   0   2.0000     -19.145456      -520.9744
   1   2.0000     -10.279218      -279.7118
   2   2.0000     -10.223936      -278.2074
   3   2.0000     -10.211813      -277.8776
   4   2.0000      -1.066273       -29.0148
   5   2.0000      -0.792335       -21.5605
   6   2.0000      -0.651183       -17.7196
   7   2.0000      -0.557327       -15.1656
   8   2.0000      -0.491143       -13.3647
   9   2.0000      -0.458213       -12.4686
  10   2.0000      -0.436500       -11.8778
  11   2.0000      -0.395310       -10.7569
  12   2.0000      -0.373613       -10.1665
  13   2.0000      -0.282070        -7.6755
  14   2.0000      -0.258020        -7.0211
  15   0.0000      -0.054001        -1.4694
  16   0.0000       0.000947         0.0258
  17   0.0000       0.060000         1.6327
  18   0.0000       0.084203         2.2913
  19   0.0000       0.116420         3.1680

MULLIKEN ATOMIC CHARGES
-----------------------
   0 C :    0.193960
   1 O :   -0.158929
   2 C :   -0.173540
   3 C :    0.062589
   4 H :   -0.017522
   5 H :    0.060350
   6 H :   -0.023307
   7 H :    0.056399
Sum of atomic charges:   -0.0000000

LOEWDIN ATOMIC CHARGES
----------------------
   0 C :   -0.055867
   1 O :    0.036753
   2 C :   -0.067315
   3 C :   -0.013266
   4 H :   -0.007635
   5 H :    0.064387
   6 H :   -0.013201
   7 H :    0.056145

  Mayer bond orders larger than 0.100000
B(  0-C ,  1-O ) :   2.2496 B(  0-C ,  2-C ) :   0.9920 B(  0-C ,  4-H ) :   0.9123
B(  2-C ,  3-C ) :   2.0022 B(  2-C ,  5-H ) :   0.9190 B(  3-C ,  6-H ) :   0.9478
B(  3-C ,  7-H ) :   0.9447

-----------------------------------------------------------------------------
         ABSORPTION SPECTRUM VIA TRANSITION ELECTRIC DIPOLE MOMENTS
-----------------------------------------------------------------------------
State   Energy    Wavelength  fosc         T2        TX        TY        TZ
        (cm-1)      (nm)                 (au**2)    (au)      (au)      (au)
-----------------------------------------------------------------------------
   1   31559.8    316.9   0.000264366   0.00276  -0.04043  -0.03262  -0.00771

FINAL SINGLE POINT ENERGY      -191.619319476355

DIPOLE MOMENT
-------------
                                X             Y             Z
Electronic contribution:     -3.00397      -1.48384       0.98000
Nuclear contribution   :      3.64710       1.99520      -1.45994
                        -----------------------------------------
Total Dipole Moment    :      0.64313       0.51136      -0.47994
                        -----------------------------------------
Magnitude (a.u.)       :      0.95155
Magnitude (Debye)      :      2.41865

Rotational constants in cm-1:     1.119351     0.159007     0.152970
Rotational constants in MHz : 33557.307654  4766.908289  4585.926383

                             ****ORCA TERMINATED NORMALLY****
TOTAL RUN TIME: 0 days 0 hours 3 minutes 18 seconds 151 msec
