                         Program Version 5.0.3 -  RELEASE  -
|  1> ! HF-3c
|  2> !TightSCF
|  3> %scf
|  4>  ConvForced true
|  5>  convergence tight
|  6>  MaxIter 500
|  7> end
|  8>
|  9> %tddft
| 10>  nroots 1
| 11> end
| 12>
| 13> # 	15705
| 14> * xyz 0 1
| 15> 		C   -1.176199  -0.423468   0.041337
| 16> 		O   -1.337119  -1.461597   0.565524
| 17> 		C    0.043727   0.438649   0.238138
| 18> 		C    1.246836  -0.038112  -0.121927
| 19> 		H   -2.076098   0.091081  -0.616560
| 20> 		H   -0.199303   1.704724   0.412203
| 21> 		H    1.424575  -1.012587  -0.350544
| 22> 		H    2.110210   0.661840  -0.120731
| 23> *
| 24>
| 25>                          ****END OF INPUT****

CARTESIAN COORDINATES (ANGSTROEM)
---------------------------------
  C     -1.176199   -0.423468    0.041337
  O     -1.337119   -1.461597    0.565524
  C      0.043727    0.438649    0.238138
  C      1.246836   -0.038112   -0.121927
  H     -2.076098    0.091081   -0.616560
  H     -0.199303    1.704724    0.412203
  H      1.424575   -1.012587   -0.350544
  H      2.110210    0.661840   -0.120731

 Total Charge           Charge          ....    0
 Multiplicity           Mult            ....    1
 Number of Electrons    NEL             ....   30
 Basis Dimension        Dim             ....   24

ORBITAL ENERGIES
----------------

  NO   OCC          E(Eh)            E(eV)
   0   2.0000     -20.376790      -554.4806
   1   2.0000     -11.301914      -307.5407
   2   2.0000     -11.186049      -304.3879
   3   2.0000     -11.178012      -304.1692
   4   2.0000      -1.428211       -38.8636
   5   2.0000      -1.063830       -28.9483
   6   2.0000      -0.869310       -23.6551
   7   2.0000      -0.728330       -19.8189
   8   2.0000      -0.681097       -18.5336
   9   2.0000      -0.612400       -16.6642
  10   2.0000      -0.603835       -16.4312
  11   2.0000      -0.541356       -14.7310
  12   2.0000      -0.507690       -13.8149
  13   2.0000      -0.395021       -10.7491
  14   2.0000      -0.391267       -10.6469
  15   0.0000       0.165079         4.4920
  16   0.0000       0.266173         7.2429
  17   0.0000       0.446616        12.1530
  18   0.0000       0.515775        14.0350
  19   0.0000       0.629176        17.1208

MULLIKEN ATOMIC CHARGES
-----------------------
   0 C :    0.189333
   1 O :   -0.361982
   2 C :   -0.134637
   3 C :   -0.258161
   4 H :    0.128583
   5 H :    0.148979
   6 H :    0.145386
   7 H :    0.142501
Sum of atomic charges:    0.0000000

LOEWDIN ATOMIC CHARGES
----------------------
   0 C :    0.149303
   1 O :   -0.252844
   2 C :   -0.108295
   3 C :   -0.160191
   4 H :    0.075013
   5 H :    0.112850
   6 H :    0.089087
   7 H :    0.095078

  Mayer bond orders larger than 0.100000
B(  0-C ,  1-O ) :   1.9385 B(  0-C ,  2-C ) :   0.9912 B(  0-C ,  4-H ) :   0.8988
B(  2-C ,  3-C ) :   1.9762 B(  2-C ,  5-H ) :   0.9436 B(  3-C ,  6-H ) :   0.9649
B(  3-C ,  7-H ) :   0.9628

-----------------------------------------------------------------------------
         ABSORPTION SPECTRUM VIA TRANSITION ELECTRIC DIPOLE MOMENTS
-----------------------------------------------------------------------------
State   Energy    Wavelength  fosc         T2        TX        TY        TZ
        (cm-1)      (nm)                 (au**2)    (au)      (au)      (au)
-----------------------------------------------------------------------------
   1   36319.1    275.3   0.000693538   0.00629  -0.07389  -0.02455  -0.01498

Dispersion correction           -0.024851802
FINAL SINGLE POINT ENERGY      -189.279426229426

DIPOLE MOMENT
-------------
                                X             Y             Z
Electronic contribution:     -2.17628      -1.83675       0.85650
Nuclear contribution   :      2.42171       2.82614      -1.31491
                        -----------------------------------------
Total Dipole Moment    :      0.24543       0.98939      -0.45841
                        -----------------------------------------
Magnitude (a.u.)       :      1.11770
Magnitude (Debye)      :      2.84098

Rotational constants in cm-1:     0.815195     0.187774     0.160764
Rotational constants in MHz : 24438.922779  5629.311596  4819.568776

                             ****ORCA TERMINATED NORMALLY****
TOTAL RUN TIME: 0 days 0 hours 0 minutes 15 seconds 656 msec
