                         Program Version 5.0.3 -  RELEASE  -
|  1> ! HF-3c
|  2> !TightSCF
|  3> %scf
|  4>  ConvForced true
|  5>  convergence tight
|  6>  MaxIter 500
|  7> end
|  8>
|  9> %tddft
| 10>  nroots 1
| 11> end
| 12>
| 13> # 	19329
| 14> * xyz 0 1
| 15> 		C   -1.186291  -0.241656   0.075046
| 16> 		O   -1.412312  -1.174824   0.849222
| 17> 		C    0.010708   0.581362   0.205902
| 18> 		C    1.200806   0.086808  -0.247613
| 19> 		H   -1.738623  -0.122509  -0.982485
| 20> 		H   -0.096720   1.461500   0.793773
| 21> 		H    1.068569  -1.171228  -0.630247
| 22> 		H    2.132101   0.605495   0.000324
| 23> *
| 24>
| 25>                          ****END OF INPUT****

CARTESIAN COORDINATES (ANGSTROEM)
---------------------------------
  C     -1.186291   -0.241656    0.075046
  O     -1.412312   -1.174824    0.849222
  C      0.010708    0.581362    0.205902
  C      1.200806    0.086808   -0.247613
  H     -1.738623   -0.122509   -0.982485
  H     -0.096720    1.461500    0.793773
  H      1.068569   -1.171228   -0.630247
  H      2.132101    0.605495    0.000324

 Total Charge           Charge          ....    0
 Multiplicity           Mult            ....    1
 Number of Electrons    NEL             ....   30
 Basis Dimension        Dim             ....   24

ORBITAL ENERGIES
----------------

  NO   OCC          E(Eh)            E(eV)
   0   2.0000     -20.362917      -554.1031
   1   2.0000     -11.288394      -307.1728
   2   2.0000     -11.176797      -304.1361
   3   2.0000     -11.172681      -304.0241
   4   2.0000      -1.386487       -37.7282
   5   2.0000      -1.063831       -28.9483
   6   2.0000      -0.865136       -23.5415
   7   2.0000      -0.738418       -20.0934
   8   2.0000      -0.666056       -18.1243
   9   2.0000      -0.621770       -16.9192
  10   2.0000      -0.583374       -15.8744
  11   2.0000      -0.509154       -13.8548
  12   2.0000      -0.486722       -13.2444
  13   2.0000      -0.404466       -11.0061
  14   2.0000      -0.382698       -10.4138
  15   0.0000       0.185873         5.0579
  16   0.0000       0.202059         5.4983
  17   0.0000       0.431288        11.7360
  18   0.0000       0.547674        14.9030
  19   0.0000       0.640685        17.4339

MULLIKEN ATOMIC CHARGES
-----------------------
   0 C :    0.169437
   1 O :   -0.345894
   2 C :   -0.188573
   3 C :   -0.212778
   4 H :    0.137289
   5 H :    0.146308
   6 H :    0.150198
   7 H :    0.144012
Sum of atomic charges:    0.0000000

LOEWDIN ATOMIC CHARGES
----------------------
   0 C :    0.151690
   1 O :   -0.257784
   2 C :   -0.141678
   3 C :   -0.139906
   4 H :    0.082228
   5 H :    0.093407
   6 H :    0.117260
   7 H :    0.094784

  Mayer bond orders larger than 0.100000
B(  0-C ,  1-O ) :   1.9415 B(  0-C ,  2-C ) :   1.0011 B(  0-C ,  4-H ) :   0.9086
B(  2-C ,  3-C ) :   1.9809 B(  2-C ,  5-H ) :   0.9516 B(  3-C ,  6-H ) :   0.9527
B(  3-C ,  7-H ) :   0.9612

-----------------------------------------------------------------------------
         ABSORPTION SPECTRUM VIA TRANSITION ELECTRIC DIPOLE MOMENTS
-----------------------------------------------------------------------------
State   Energy    Wavelength  fosc         T2        TX        TY        TZ
        (cm-1)      (nm)                 (au**2)    (au)      (au)      (au)
-----------------------------------------------------------------------------
   1   33041.4    302.7   0.000195365   0.00195  -0.03575  -0.00454  -0.02546

Dispersion correction           -0.025491064
FINAL SINGLE POINT ENERGY      -189.279326466053

DIPOLE MOMENT
-------------
                                X             Y             Z
Electronic contribution:     -2.28050      -0.99818       1.03863
Nuclear contribution   :      2.66561       1.57453      -1.63994
                        -----------------------------------------
Total Dipole Moment    :      0.38510       0.57635      -0.60131
                        -----------------------------------------
Magnitude (a.u.)       :      0.91764
Magnitude (Debye)      :      2.33245

Rotational constants in cm-1:     0.819375     0.182695     0.167381
Rotational constants in MHz : 24564.256893  5477.064963  5017.945833

                             ****ORCA TERMINATED NORMALLY****
TOTAL RUN TIME: 0 days 0 hours 0 minutes 16 seconds 121 msec
