                         Program Version 5.0.3 -  RELEASE  -
|  1> ! B3LYP cc-pVDZ
|  2> !TightSCF
|  3> %scf
|  4>  ConvForced true
|  5>  convergence tight
|  6>  MaxIter 500
|  7> end
|  8>
|  9> %tddft
| 10>  nroots 1
| 11> end
| 12>
| 13> # 	6350
| 14> * xyz 0 1
| 15> 		C   -1.202753  -0.274000   0.035703
| 16> 		O   -1.703382  -0.865111  -0.814568
| 17> 		C    0.062970   0.540014  -0.217031
| 18> 		C    1.260064   0.016669   0.174942
| 19> 		H   -1.621242  -0.463946   1.083709
| 20> 		H   -0.015981   1.342551  -0.952419
| 21> 		H    1.162626  -0.922726   0.780230
| 22> 		H    2.047241   0.631372  -0.026517
| 23> *
| 24>
| 25>                          ****END OF INPUT****

CARTESIAN COORDINATES (ANGSTROEM)
---------------------------------
  C     -1.202753   -0.274000    0.035703
  O     -1.703382   -0.865111   -0.814568
  C      0.062970    0.540014   -0.217031
  C      1.260064    0.016669    0.174942
  H     -1.621242   -0.463946    1.083709
  H     -0.015981    1.342551   -0.952419
  H      1.162626   -0.922726    0.780230
  H      2.047241    0.631372   -0.026517

 Total Charge           Charge          ....    0
 Multiplicity           Mult            ....    1
 Number of Electrons    NEL             ....   30
 Basis Dimension        Dim             ....   76

ORBITAL ENERGIES
----------------

  NO   OCC          E(Eh)            E(eV)
   0   2.0000     -19.142079      -520.8825
   1   2.0000     -10.277111      -279.6544
   2   2.0000     -10.206219      -277.7253
   3   2.0000     -10.203537      -277.6524
   4   2.0000      -1.086948       -29.5773
   5   2.0000      -0.787928       -21.4406
   6   2.0000      -0.634396       -17.2628
   7   2.0000      -0.559519       -15.2253
   8   2.0000      -0.498510       -13.5652
   9   2.0000      -0.462583       -12.5875
  10   2.0000      -0.434105       -11.8126
  11   2.0000      -0.408823       -11.1246
  12   2.0000      -0.388773       -10.5790
  13   2.0000      -0.283375        -7.7110
  14   2.0000      -0.249434        -6.7875
  15   0.0000      -0.036678        -0.9981
  16   0.0000       0.007809         0.2125
  17   0.0000       0.084932         2.3111
  18   0.0000       0.088287         2.4024
  19   0.0000       0.104030         2.8308

MULLIKEN ATOMIC CHARGES
-----------------------
   0 C :    0.129461
   1 O :   -0.127377
   2 C :   -0.106881
   3 C :    0.070927
   4 H :   -0.023586
   5 H :    0.019172
   6 H :    0.030469
   7 H :    0.007816
Sum of atomic charges:   -0.0000000

LOEWDIN ATOMIC CHARGES
----------------------
   0 C :   -0.064432
   1 O :    0.064192
   2 C :   -0.051443
   3 C :   -0.018568
   4 H :   -0.011224
   5 H :    0.030614
   6 H :    0.038525
   7 H :    0.012336

  Mayer bond orders larger than 0.100000
B(  0-C ,  1-O ) :   2.2731 B(  0-C ,  2-C ) :   0.9657 B(  0-C ,  4-H ) :   0.9062
B(  2-C ,  3-C ) :   2.0119 B(  2-C ,  5-H ) :   0.9406 B(  3-C ,  6-H ) :   0.9438
B(  3-C ,  7-H ) :   0.9421

-----------------------------------------------------------------------------
         ABSORPTION SPECTRUM VIA TRANSITION ELECTRIC DIPOLE MOMENTS
-----------------------------------------------------------------------------
State   Energy    Wavelength  fosc         T2        TX        TY        TZ
        (cm-1)      (nm)                 (au**2)    (au)      (au)      (au)
-----------------------------------------------------------------------------
   1   33967.2    294.4   0.002845182   0.02758   0.15292   0.00434   0.06458

FINAL SINGLE POINT ENERGY      -191.621939977711

DIPOLE MOMENT
-------------
                                X             Y             Z
Electronic contribution:     -2.59670      -0.76972      -1.20885
Nuclear contribution   :      3.07797       1.20032       1.63922
                        -----------------------------------------
Total Dipole Moment    :      0.48127       0.43060       0.43037
                        -----------------------------------------
Magnitude (a.u.)       :      0.77605
Magnitude (Debye)      :      1.97256

Rotational constants in cm-1:     1.013734     0.167752     0.163083
Rotational constants in MHz : 30390.987188  5029.068733  4889.109118

                             ****ORCA TERMINATED NORMALLY****
TOTAL RUN TIME: 0 days 0 hours 3 minutes 27 seconds 637 msec
