                         Program Version 5.0.3 -  RELEASE  -
|  1> ! B3LYP cc-pVDZ
|  2> !TightSCF
|  3> %scf
|  4>  ConvForced true
|  5>  convergence tight
|  6>  MaxIter 500
|  7> end
|  8>
|  9> %tddft
| 10>  nroots 1
| 11> end
| 12>
| 13> # 	9510
| 14> * xyz 0 1
| 15> 		C   -1.141691  -0.369247  -0.009603
| 16> 		O   -1.553894  -1.274959  -0.820782
| 17> 		C   -0.035070   0.430541  -0.214341
| 18> 		C    1.167801   0.102519   0.172060
| 19> 		H   -1.782622  -0.159494   0.823639
| 20> 		H   -0.195302   1.576610  -0.503906
| 21> 		H    1.416829  -0.909681   0.442242
| 22> 		H    2.146146   0.650624   0.061527
| 23> *
| 24>
| 25>                          ****END OF INPUT****

CARTESIAN COORDINATES (ANGSTROEM)
---------------------------------
  C     -1.141691   -0.369247   -0.009603
  O     -1.553894   -1.274959   -0.820782
  C     -0.035070    0.430541   -0.214341
  C      1.167801    0.102519    0.172060
  H     -1.782622   -0.159494    0.823639
  H     -0.195302    1.576610   -0.503906
  H      1.416829   -0.909681    0.442242
  H      2.146146    0.650624    0.061527

 Total Charge           Charge          ....    0
 Multiplicity           Mult            ....    1
 Number of Electrons    NEL             ....   30
 Basis Dimension        Dim             ....   76

ORBITAL ENERGIES
----------------

  NO   OCC          E(Eh)            E(eV)
   0   2.0000     -19.140538      -520.8405
   1   2.0000     -10.277233      -279.6577
   2   2.0000     -10.214478      -277.9501
   3   2.0000     -10.208732      -277.7937
   4   2.0000      -1.011631       -27.5279
   5   2.0000      -0.816768       -22.2254
   6   2.0000      -0.672179       -18.2909
   7   2.0000      -0.556277       -15.1371
   8   2.0000      -0.503109       -13.6903
   9   2.0000      -0.467998       -12.7349
  10   2.0000      -0.432719       -11.7749
  11   2.0000      -0.374359       -10.1868
  12   2.0000      -0.348479        -9.4826
  13   2.0000      -0.294989        -8.0271
  14   2.0000      -0.255869        -6.9625
  15   0.0000      -0.054069        -1.4713
  16   0.0000      -0.013296        -0.3618
  17   0.0000       0.067663         1.8412
  18   0.0000       0.091684         2.4948
  19   0.0000       0.108714         2.9583

MULLIKEN ATOMIC CHARGES
-----------------------
   0 C :    0.199129
   1 O :   -0.242965
   2 C :   -0.069817
   3 C :    0.008156
   4 H :    0.000275
   5 H :    0.047292
   6 H :    0.019706
   7 H :    0.038225
Sum of atomic charges:   -0.0000000

LOEWDIN ATOMIC CHARGES
----------------------
   0 C :    0.012355
   1 O :   -0.056324
   2 C :   -0.070735
   3 C :   -0.022508
   4 H :    0.004499
   5 H :    0.067655
   6 H :    0.025229
   7 H :    0.039829

  Mayer bond orders larger than 0.100000
B(  0-C ,  1-O ) :   2.1438 B(  0-C ,  2-C ) :   1.0460 B(  0-C ,  4-H ) :   0.9345
B(  2-C ,  3-C ) :   2.0222 B(  2-C ,  5-H ) :   0.9071 B(  3-C ,  6-H ) :   0.9475
B(  3-C ,  7-H ) :   0.9494

-----------------------------------------------------------------------------
         ABSORPTION SPECTRUM VIA TRANSITION ELECTRIC DIPOLE MOMENTS
-----------------------------------------------------------------------------
State   Energy    Wavelength  fosc         T2        TX        TY        TZ
        (cm-1)      (nm)                 (au**2)    (au)      (au)      (au)
-----------------------------------------------------------------------------
   1   28717.6    348.2   0.000071544   0.00082   0.02413   0.01526  -0.00223

FINAL SINGLE POINT ENERGY      -191.640168161294

DIPOLE MOMENT
-------------
                                X             Y             Z
Electronic contribution:     -2.47729      -1.43749      -1.04818
Nuclear contribution   :      3.03458       2.22769       1.62900
                        -----------------------------------------
Total Dipole Moment    :      0.55729       0.79020       0.58081
                        -----------------------------------------
Magnitude (a.u.)       :      1.12798
Magnitude (Debye)      :      2.86709

Rotational constants in cm-1:     0.982419     0.174301     0.161376
Rotational constants in MHz : 29452.191991  5225.400750  4837.930126

                             ****ORCA TERMINATED NORMALLY****
TOTAL RUN TIME: 0 days 0 hours 3 minutes 22 seconds 235 msec
