                         Program Version 5.0.3 -  RELEASE  -
|  1> ! B3LYP cc-pVDZ
|  2> !TightSCF
|  3> %scf
|  4>  ConvForced true
|  5>  convergence tight
|  6>  MaxIter 500
|  7> end
|  8>
|  9> %tddft
| 10>  nroots 1
| 11> end
| 12>
| 13> # 	16232
| 14> * xyz 0 1
| 15> 		C   -1.227626  -0.303609  -0.038945
| 16> 		O   -1.607844  -1.133407  -0.852996
| 17> 		C    0.016678   0.485830  -0.285618
| 18> 		C    1.217601   0.035734   0.213034
| 19> 		H   -1.634038  -0.201898   0.902684
| 20> 		H   -0.176701   1.514395  -0.593915
| 21> 		H    1.425667  -0.957689   0.597811
| 22> 		H    1.974799   0.587146   0.066723
| 23> *
| 24>
| 25>                          ****END OF INPUT****

CARTESIAN COORDINATES (ANGSTROEM)
---------------------------------
  C     -1.227626   -0.303609   -0.038945
  O     -1.607844   -1.133407   -0.852996
  C      0.016678    0.485830   -0.285618
  C      1.217601    0.035734    0.213034
  H     -1.634038   -0.201898    0.902684
  H     -0.176701    1.514395   -0.593915
  H      1.425667   -0.957689    0.597811
  H      1.974799    0.587146    0.066723

 Total Charge           Charge          ....    0
 Multiplicity           Mult            ....    1
 Number of Electrons    NEL             ....   30
 Basis Dimension        Dim             ....   76

ORBITAL ENERGIES
----------------

  NO   OCC          E(Eh)            E(eV)
   0   2.0000     -19.141726      -520.8728
   1   2.0000     -10.273491      -279.5559
   2   2.0000     -10.210260      -277.8353
   3   2.0000     -10.195995      -277.4471
   4   2.0000      -1.042109       -28.3572
   5   2.0000      -0.790438       -21.5089
   6   2.0000      -0.666287       -18.1306
   7   2.0000      -0.571834       -15.5604
   8   2.0000      -0.496191       -13.5021
   9   2.0000      -0.463023       -12.5995
  10   2.0000      -0.439199       -11.9512
  11   2.0000      -0.399862       -10.8808
  12   2.0000      -0.369350       -10.0505
  13   2.0000      -0.280258        -7.6262
  14   2.0000      -0.253125        -6.8879
  15   0.0000      -0.034462        -0.9377
  16   0.0000      -0.021321        -0.5802
  17   0.0000       0.086525         2.3545
  18   0.0000       0.097180         2.6444
  19   0.0000       0.111116         3.0236

MULLIKEN ATOMIC CHARGES
-----------------------
   0 C :    0.204062
   1 O :   -0.198905
   2 C :   -0.107968
   3 C :    0.098107
   4 H :   -0.016478
   5 H :    0.019498
   6 H :    0.026101
   7 H :   -0.024417
Sum of atomic charges:   -0.0000000

LOEWDIN ATOMIC CHARGES
----------------------
   0 C :   -0.003139
   1 O :   -0.001722
   2 C :   -0.034950
   3 C :    0.003024
   4 H :   -0.014177
   5 H :    0.034287
   6 H :    0.031890
   7 H :   -0.015214

  Mayer bond orders larger than 0.100000
B(  0-C ,  1-O ) :   2.2104 B(  0-C ,  2-C ) :   0.9966 B(  0-C ,  4-H ) :   0.9320
B(  2-C ,  3-C ) :   2.0284 B(  2-C ,  5-H ) :   0.9339 B(  3-C ,  6-H ) :   0.9586
B(  3-C ,  7-H ) :   0.9457

-----------------------------------------------------------------------------
         ABSORPTION SPECTRUM VIA TRANSITION ELECTRIC DIPOLE MOMENTS
-----------------------------------------------------------------------------
State   Energy    Wavelength  fosc         T2        TX        TY        TZ
        (cm-1)      (nm)                 (au**2)    (au)      (au)      (au)
-----------------------------------------------------------------------------
   1   32110.9    311.4   0.000114654   0.00118   0.00234  -0.00474  -0.03388

FINAL SINGLE POINT ENERGY      -191.620656590098

DIPOLE MOMENT
-------------
                                X             Y             Z
Electronic contribution:     -2.64435      -1.18743      -1.23788
Nuclear contribution   :      3.08325       1.84579       1.84169
                        -----------------------------------------
Total Dipole Moment    :      0.43890       0.65836       0.60381
                        -----------------------------------------
Magnitude (a.u.)       :      0.99532
Magnitude (Debye)      :      2.52990

Rotational constants in cm-1:     0.939591     0.170117     0.159866
Rotational constants in MHz : 28168.223002  5099.989970  4792.666128

                             ****ORCA TERMINATED NORMALLY****
TOTAL RUN TIME: 0 days 0 hours 3 minutes 14 seconds 711 msec
