                         Program Version 5.0.3 -  RELEASE  -
|  1> ! HF-3c
|  2> !TightSCF
|  3> %scf
|  4>  ConvForced true
|  5>  convergence tight
|  6>  MaxIter 500
|  7> end
|  8>
|  9> %tddft
| 10>  nroots 1
| 11> end
| 12>
| 13> # 	7506
| 14> * xyz 0 1
| 15> 		C   -1.204586  -0.407358  -0.063490
| 16> 		O   -1.372566  -1.407110  -0.565226
| 17> 		C    0.013656   0.426297  -0.224895
| 18> 		C    1.224349  -0.015833   0.112504
| 19> 		H   -1.941155   0.215745   0.744119
| 20> 		H   -0.108601   1.507282  -0.461358
| 21> 		H    1.389871  -1.029031   0.399436
| 22> 		H    2.062673   0.705653   0.013270
| 23> *
| 24>
| 25>                          ****END OF INPUT****

CARTESIAN COORDINATES (ANGSTROEM)
---------------------------------
  C     -1.204586   -0.407358   -0.063490
  O     -1.372566   -1.407110   -0.565226
  C      0.013656    0.426297   -0.224895
  C      1.224349   -0.015833    0.112504
  H     -1.941155    0.215745    0.744119
  H     -0.108601    1.507282   -0.461358
  H      1.389871   -1.029031    0.399436
  H      2.062673    0.705653    0.013270

 Total Charge           Charge          ....    0
 Multiplicity           Mult            ....    1
 Number of Electrons    NEL             ....   30
 Basis Dimension        Dim             ....   24

ORBITAL ENERGIES
----------------

  NO   OCC          E(Eh)            E(eV)
   0   2.0000     -20.404075      -555.2231
   1   2.0000     -11.321756      -308.0806
   2   2.0000     -11.179250      -304.2029
   3   2.0000     -11.176507      -304.1282
   4   2.0000      -1.470747       -40.0211
   5   2.0000      -1.074820       -29.2473
   6   2.0000      -0.876167       -23.8417
   7   2.0000      -0.733507       -19.9597
   8   2.0000      -0.701748       -19.0955
   9   2.0000      -0.632433       -17.2094
  10   2.0000      -0.617701       -16.8085
  11   2.0000      -0.561112       -15.2686
  12   2.0000      -0.534362       -14.5407
  13   2.0000      -0.404677       -11.0118
  14   2.0000      -0.385646       -10.4940
  15   0.0000       0.177469         4.8292
  16   0.0000       0.271870         7.3980
  17   0.0000       0.493063        13.4169
  18   0.0000       0.606341        16.4994
  19   0.0000       0.630799        17.1649

MULLIKEN ATOMIC CHARGES
-----------------------
   0 C :    0.220126
   1 O :   -0.364675
   2 C :   -0.167295
   3 C :   -0.242427
   4 H :    0.123655
   5 H :    0.143079
   6 H :    0.144709
   7 H :    0.142828
Sum of atomic charges:   -0.0000000

LOEWDIN ATOMIC CHARGES
----------------------
   0 C :    0.163498
   1 O :   -0.236911
   2 C :   -0.129871
   3 C :   -0.149218
   4 H :    0.070625
   5 H :    0.094449
   6 H :    0.092380
   7 H :    0.095047

  Mayer bond orders larger than 0.100000
B(  0-C ,  1-O ) :   1.9567 B(  0-C ,  2-C ) :   0.9822 B(  0-C ,  4-H ) :   0.8812
B(  2-C ,  3-C ) :   1.9794 B(  2-C ,  5-H ) :   0.9542 B(  3-C ,  6-H ) :   0.9649
B(  3-C ,  7-H ) :   0.9634

-----------------------------------------------------------------------------
         ABSORPTION SPECTRUM VIA TRANSITION ELECTRIC DIPOLE MOMENTS
-----------------------------------------------------------------------------
State   Energy    Wavelength  fosc         T2        TX        TY        TZ
        (cm-1)      (nm)                 (au**2)    (au)      (au)      (au)
-----------------------------------------------------------------------------
   1   39258.6    254.7   0.000399622   0.00335   0.05760   0.00498   0.00296

Dispersion correction           -0.025431506
FINAL SINGLE POINT ENERGY      -189.282390103755

DIPOLE MOMENT
-------------
                                X             Y             Z
Electronic contribution:     -2.36929      -1.84475      -0.88830
Nuclear contribution   :      2.64946       2.70782       1.34665
                        -----------------------------------------
Total Dipole Moment    :      0.28016       0.86307       0.45835
                        -----------------------------------------
Magnitude (a.u.)       :      1.01660
Magnitude (Debye)      :      2.58398

Rotational constants in cm-1:     0.875668     0.189891     0.164873
Rotational constants in MHz : 26251.866833  5692.801067  4942.769317

                             ****ORCA TERMINATED NORMALLY****
TOTAL RUN TIME: 0 days 0 hours 0 minutes 11 seconds 122 msec
