                         Program Version 5.0.3 -  RELEASE  -
|  1> ! B3LYP cc-pVDZ
|  2> !TightSCF
|  3> %scf
|  4>  ConvForced true
|  5>  convergence tight
|  6>  MaxIter 500
|  7> end
|  8>
|  9> %tddft
| 10>  nroots 1
| 11> end
| 12>
| 13> # 	27866
| 14> * xyz 0 1
| 15> 		C   -0.558556  -0.488170   0.015799
| 16> 		O   -0.644322  -1.673363  -0.004320
| 17> 		C    0.654271   0.455423  -0.040110
| 18> 		C    1.855622  -0.067692   0.009117
| 19> 		H   -1.422567   0.069439   0.076822
| 20> 		H    0.678249   1.544736   0.089311
| 21> 		H    2.054944  -1.108891   0.005859
| 22> 		H    2.681227   0.478883   0.084602
| 23> *
| 24>
| 25>                          ****END OF INPUT****

CARTESIAN COORDINATES (ANGSTROEM)
---------------------------------
  C     -0.558556   -0.488170    0.015799
  O     -0.644322   -1.673363   -0.004320
  C      0.654271    0.455423   -0.040110
  C      1.855622   -0.067692    0.009117
  H     -1.422567    0.069439    0.076822
  H      0.678249    1.544736    0.089311
  H      2.054944   -1.108891    0.005859
  H      2.681227    0.478883    0.084602

 Total Charge           Charge          ....    0
 Multiplicity           Mult            ....    1
 Number of Electrons    NEL             ....   30
 Basis Dimension        Dim             ....   76

ORBITAL ENERGIES
----------------

  NO   OCC          E(Eh)            E(eV)
   0   2.0000     -19.142422      -520.8918
   1   2.0000     -10.272102      -279.5181
   2   2.0000     -10.201689      -277.6021
   3   2.0000     -10.193225      -277.3718
   4   2.0000      -1.059785       -28.8382
   5   2.0000      -0.800223       -21.7752
   6   2.0000      -0.658866       -17.9286
   7   2.0000      -0.560170       -15.2430
   8   2.0000      -0.515122       -14.0172
   9   2.0000      -0.448997       -12.2178
  10   2.0000      -0.428900       -11.6710
  11   2.0000      -0.403773       -10.9872
  12   2.0000      -0.383998       -10.4491
  13   2.0000      -0.293489        -7.9862
  14   2.0000      -0.255357        -6.9486
  15   0.0000      -0.060754        -1.6532
  16   0.0000       0.059790         1.6270
  17   0.0000       0.073441         1.9984
  18   0.0000       0.102320         2.7843
  19   0.0000       0.127868         3.4795

MULLIKEN ATOMIC CHARGES
-----------------------
   0 C :    0.240592
   1 O :   -0.170787
   2 C :   -0.172329
   3 C :    0.148995
   4 H :   -0.043522
   5 H :   -0.003768
   6 H :    0.015533
   7 H :   -0.014715
Sum of atomic charges:    0.0000000

LOEWDIN ATOMIC CHARGES
----------------------
   0 C :   -0.025934
   1 O :    0.023647
   2 C :   -0.081101
   3 C :    0.042261
   4 H :   -0.024355
   5 H :    0.036796
   6 H :    0.024688
   7 H :    0.003999

  Mayer bond orders larger than 0.100000
B(  0-C ,  1-O ) :   2.2357 B(  0-C ,  2-C ) :   0.9950 B(  0-C ,  4-H ) :   0.9284
B(  2-C ,  3-C ) :   1.9954 B(  2-C ,  5-H ) :   0.9395 B(  3-C ,  6-H ) :   0.9483
B(  3-C ,  7-H ) :   0.9411

-----------------------------------------------------------------------------
         ABSORPTION SPECTRUM VIA TRANSITION ELECTRIC DIPOLE MOMENTS
-----------------------------------------------------------------------------
State   Energy    Wavelength  fosc         T2        TX        TY        TZ
        (cm-1)      (nm)                 (au**2)    (au)      (au)      (au)
-----------------------------------------------------------------------------
   1   29779.3    335.8   0.000236355   0.00261   0.04738   0.01744   0.00798

FINAL SINGLE POINT ENERGY      -191.647281607398

DIPOLE MOMENT
-------------
                                X             Y             Z
Electronic contribution:     -2.13986      -1.83373      -0.16942
Nuclear contribution   :      2.58287       2.71206       0.24019
                        -----------------------------------------
Total Dipole Moment    :      0.44300       0.87833       0.07077
                        -----------------------------------------
Magnitude (a.u.)       :      0.98627
Magnitude (Debye)      :      2.50690

Rotational constants in cm-1:     0.832177     0.194709     0.157922
Rotational constants in MHz : 24948.051087  5837.223084  4734.394402

                             ****ORCA TERMINATED NORMALLY****
TOTAL RUN TIME: 0 days 0 hours 3 minutes 27 seconds 229 msec
