                         Program Version 5.0.3 -  RELEASE  -
|  1> ! HF-3c
|  2> !TightSCF
|  3> %scf
|  4>  ConvForced true
|  5>  convergence tight
|  6>  MaxIter 500
|  7> end
|  8>
|  9> %tddft
| 10>  nroots 1
| 11> end
| 12>
| 13> # 	30456
| 14> * xyz 0 1
| 15> 		C   -0.558776  -0.455971   0.004933
| 16> 		O   -0.643617  -1.694696   0.001353
| 17> 		C    0.618487   0.447725  -0.011193
| 18> 		C    1.880616  -0.072232   0.000514
| 19> 		H   -1.286417   0.069308   0.004236
| 20> 		H    0.509098   1.627757   0.016189
| 21> 		H    2.047590  -1.088594  -0.049756
| 22> 		H    2.821782   0.488204   0.082067
| 23> *
| 24>
| 25>                          ****END OF INPUT****

CARTESIAN COORDINATES (ANGSTROEM)
---------------------------------
  C     -0.558776   -0.455971    0.004933
  O     -0.643617   -1.694696    0.001353
  C      0.618487    0.447725   -0.011193
  C      1.880616   -0.072232    0.000514
  H     -1.286417    0.069308    0.004236
  H      0.509098    1.627757    0.016189
  H      2.047590   -1.088594   -0.049756
  H      2.821782    0.488204    0.082067

 Total Charge           Charge          ....    0
 Multiplicity           Mult            ....    1
 Number of Electrons    NEL             ....   30
 Basis Dimension        Dim             ....   24

ORBITAL ENERGIES
----------------

  NO   OCC          E(Eh)            E(eV)
   0   2.0000     -20.374263      -554.4119
   1   2.0000     -11.303517      -307.5843
   2   2.0000     -11.192924      -304.5749
   3   2.0000     -11.189761      -304.4889
   4   2.0000      -1.386319       -37.7237
   5   2.0000      -1.074002       -29.2251
   6   2.0000      -0.932856       -25.3843
   7   2.0000      -0.776771       -21.1370
   8   2.0000      -0.696163       -18.9436
   9   2.0000      -0.617586       -16.8054
  10   2.0000      -0.593222       -16.1424
  11   2.0000      -0.535380       -14.5684
  12   2.0000      -0.531880       -14.4732
  13   2.0000      -0.428736       -11.6665
  14   2.0000      -0.386106       -10.5065
  15   0.0000       0.112932         3.0730
  16   0.0000       0.293112         7.9760
  17   0.0000       0.511058        13.9066
  18   0.0000       0.574358        15.6291
  19   0.0000       0.684831        18.6352

MULLIKEN ATOMIC CHARGES
-----------------------
   0 C :    0.119865
   1 O :   -0.327069
   2 C :   -0.156535
   3 C :   -0.217947
   4 H :    0.135653
   5 H :    0.151355
   6 H :    0.149674
   7 H :    0.145004
Sum of atomic charges:    0.0000000

LOEWDIN ATOMIC CHARGES
----------------------
   0 C :    0.130817
   1 O :   -0.242825
   2 C :   -0.124615
   3 C :   -0.112373
   4 H :    0.056057
   5 H :    0.106049
   6 H :    0.091944
   7 H :    0.094946

  Mayer bond orders larger than 0.100000
B(  0-C ,  1-O ) :   1.8993 B(  0-C ,  2-C ) :   1.0383 B(  0-C ,  4-H ) :   0.9457
B(  2-C ,  3-C ) :   1.9281 B(  2-C ,  5-H ) :   0.9561 B(  3-C ,  6-H ) :   0.9645
B(  3-C ,  7-H ) :   0.9662

-----------------------------------------------------------------------------
         ABSORPTION SPECTRUM VIA TRANSITION ELECTRIC DIPOLE MOMENTS
-----------------------------------------------------------------------------
State   Energy    Wavelength  fosc         T2        TX        TY        TZ
        (cm-1)      (nm)                 (au**2)    (au)      (au)      (au)
-----------------------------------------------------------------------------
   1   30111.0    332.1   0.000002493   0.00003   0.00265   0.00064  -0.00445

Dispersion correction           -0.025352587
FINAL SINGLE POINT ENERGY      -189.291737408861

DIPOLE MOMENT
-------------
                                X             Y             Z
Electronic contribution:     -2.19778      -1.82387      -0.03232
Nuclear contribution   :      2.67822       2.81650       0.04911
                        -----------------------------------------
Total Dipole Moment    :      0.48045       0.99264       0.01679
                        -----------------------------------------
Magnitude (a.u.)       :      1.10292
Magnitude (Debye)      :      2.80340

Rotational constants in cm-1:     0.782374     0.193940     0.155447
Rotational constants in MHz : 23454.988661  5814.162738  4660.188793

                             ****ORCA TERMINATED NORMALLY****
TOTAL RUN TIME: 0 days 0 hours 0 minutes 15 seconds 578 msec
