                         Program Version 5.0.3 -  RELEASE  -
|  1> ! B3LYP cc-pVDZ
|  2> !TightSCF
|  3> %scf
|  4>  ConvForced true
|  5>  convergence tight
|  6>  MaxIter 500
|  7> end
|  8>
|  9> %tddft
| 10>  nroots 1
| 11> end
| 12>
| 13> # 	20779
| 14> * xyz 0 1
| 15> 		C   -0.556289  -0.422615   0.042011
| 16> 		O   -0.585894  -1.661501  -0.017987
| 17> 		C    0.622154   0.404691  -0.036877
| 18> 		C    1.833406  -0.111449   0.006474
| 19> 		H   -1.609031   0.314054  -0.052419
| 20> 		H    0.657858   1.560603   0.115361
| 21> 		H    2.009562  -1.227680   0.178604
| 22> 		H    2.613482   0.546895  -0.096913
| 23> *
| 24>
| 25>                          ****END OF INPUT****

CARTESIAN COORDINATES (ANGSTROEM)
---------------------------------
  C     -0.556289   -0.422615    0.042011
  O     -0.585894   -1.661501   -0.017987
  C      0.622154    0.404691   -0.036877
  C      1.833406   -0.111449    0.006474
  H     -1.609031    0.314054   -0.052419
  H      0.657858    1.560603    0.115361
  H      2.009562   -1.227680    0.178604
  H      2.613482    0.546895   -0.096913

 Total Charge           Charge          ....    0
 Multiplicity           Mult            ....    1
 Number of Electrons    NEL             ....   30
 Basis Dimension        Dim             ....   76

ORBITAL ENERGIES
----------------

  NO   OCC          E(Eh)            E(eV)
   0   2.0000     -19.147265      -521.0236
   1   2.0000     -10.290865      -280.0287
   2   2.0000     -10.214642      -277.9545
   3   2.0000     -10.210758      -277.8489
   4   2.0000      -1.034972       -28.1630
   5   2.0000      -0.809328       -22.0229
   6   2.0000      -0.660870       -17.9832
   7   2.0000      -0.528124       -14.3710
   8   2.0000      -0.505474       -13.7546
   9   2.0000      -0.447119       -12.1667
  10   2.0000      -0.412468       -11.2238
  11   2.0000      -0.400418       -10.8959
  12   2.0000      -0.375681       -10.2228
  13   2.0000      -0.293310        -7.9814
  14   2.0000      -0.258900        -7.0450
  15   0.0000      -0.079336        -2.1589
  16   0.0000       0.042834         1.1656
  17   0.0000       0.064679         1.7600
  18   0.0000       0.079973         2.1762
  19   0.0000       0.104114         2.8331

MULLIKEN ATOMIC CHARGES
-----------------------
   0 C :    0.150415
   1 O :   -0.202990
   2 C :   -0.126276
   3 C :    0.107136
   4 H :   -0.012986
   5 H :    0.020591
   6 H :    0.054788
   7 H :    0.009320
Sum of atomic charges:    0.0000000

LOEWDIN ATOMIC CHARGES
----------------------
   0 C :   -0.031535
   1 O :   -0.026533
   2 C :   -0.101765
   3 C :    0.046606
   4 H :   -0.003020
   5 H :    0.052001
   6 H :    0.047819
   7 H :    0.016427

  Mayer bond orders larger than 0.100000
B(  0-C ,  1-O ) :   2.1531 B(  0-C ,  2-C ) :   1.0609 B(  0-C ,  4-H ) :   0.8805
B(  2-C ,  3-C ) :   1.9578 B(  2-C ,  5-H ) :   0.9332 B(  3-C ,  6-H ) :   0.9399
B(  3-C ,  7-H ) :   0.9292

-----------------------------------------------------------------------------
         ABSORPTION SPECTRUM VIA TRANSITION ELECTRIC DIPOLE MOMENTS
-----------------------------------------------------------------------------
State   Energy    Wavelength  fosc         T2        TX        TY        TZ
        (cm-1)      (nm)                 (au**2)    (au)      (au)      (au)
-----------------------------------------------------------------------------
   1   26727.9    374.1   0.000444276   0.00547  -0.04754   0.00395  -0.05654

FINAL SINGLE POINT ENERGY      -191.657532318804

DIPOLE MOMENT
-------------
                                X             Y             Z
Electronic contribution:     -1.64854      -2.00978      -0.05078
Nuclear contribution   :      2.28441       2.90537       0.13560
                        -----------------------------------------
Total Dipole Moment    :      0.63588       0.89559       0.08482
                        -----------------------------------------
Magnitude (a.u.)       :      1.10164
Magnitude (Debye)      :      2.80016

Rotational constants in cm-1:     0.750882     0.209127     0.163892
Rotational constants in MHz : 22510.864589  6269.474738  4913.364584

                             ****ORCA TERMINATED NORMALLY****
TOTAL RUN TIME: 0 days 0 hours 3 minutes 14 seconds 871 msec
