                         Program Version 5.0.3 -  RELEASE  -
|  1> ! B3LYP cc-pVDZ
|  2> !TightSCF
|  3> %scf
|  4>  ConvForced true
|  5>  convergence tight
|  6>  MaxIter 500
|  7> end
|  8>
|  9> %tddft
| 10>  nroots 1
| 11> end
| 12>
| 13> # 	23587
| 14> * xyz 0 1
| 15> 		C   -0.560108  -0.481600   0.014351
| 16> 		O   -0.653669  -1.642870  -0.002092
| 17> 		C    0.634659   0.364707  -0.051063
| 18> 		C    1.921972  -0.046429   0.027546
| 19> 		H   -1.403546   0.317080   0.047596
| 20> 		H    0.373695   1.428039   0.173154
| 21> 		H    1.975692  -1.090953  -0.045867
| 22> 		H    2.585303   0.620875  -0.026654
| 23> *
| 24>
| 25>                          ****END OF INPUT****

CARTESIAN COORDINATES (ANGSTROEM)
---------------------------------
  C     -0.560108   -0.481600    0.014351
  O     -0.653669   -1.642870   -0.002092
  C      0.634659    0.364707   -0.051063
  C      1.921972   -0.046429    0.027546
  H     -1.403546    0.317080    0.047596
  H      0.373695    1.428039    0.173154
  H      1.975692   -1.090953   -0.045867
  H      2.585303    0.620875   -0.026654

 Total Charge           Charge          ....    0
 Multiplicity           Mult            ....    1
 Number of Electrons    NEL             ....   30
 Basis Dimension        Dim             ....   76

ORBITAL ENERGIES
----------------

  NO   OCC          E(Eh)            E(eV)
   0   2.0000     -19.146832      -521.0118
   1   2.0000     -10.275098      -279.5996
   2   2.0000     -10.202011      -277.6108
   3   2.0000     -10.200620      -277.5730
   4   2.0000      -1.076381       -29.2898
   5   2.0000      -0.802956       -21.8495
   6   2.0000      -0.676229       -18.4011
   7   2.0000      -0.530018       -14.4225
   8   2.0000      -0.522961       -14.2305
   9   2.0000      -0.457844       -12.4586
  10   2.0000      -0.439462       -11.9584
  11   2.0000      -0.416401       -11.3309
  12   2.0000      -0.382269       -10.4021
  13   2.0000      -0.291614        -7.9352
  14   2.0000      -0.256544        -6.9809
  15   0.0000      -0.072930        -1.9845
  16   0.0000       0.064019         1.7421
  17   0.0000       0.071391         1.9426
  18   0.0000       0.097409         2.6506
  19   0.0000       0.134651         3.6640

MULLIKEN ATOMIC CHARGES
-----------------------
   0 C :    0.165077
   1 O :   -0.143617
   2 C :   -0.192781
   3 C :    0.230735
   4 H :   -0.040667
   5 H :   -0.002247
   6 H :    0.017341
   7 H :   -0.033841
Sum of atomic charges:   -0.0000000

LOEWDIN ATOMIC CHARGES
----------------------
   0 C :   -0.082011
   1 O :    0.050649
   2 C :   -0.074666
   3 C :    0.068653
   4 H :   -0.012669
   5 H :    0.031796
   6 H :    0.031372
   7 H :   -0.013123

  Mayer bond orders larger than 0.100000
B(  0-C ,  1-O ) :   2.2563 B(  0-C ,  2-C ) :   1.0642 B(  0-C ,  4-H ) :   0.8902
B(  2-C ,  3-C ) :   1.9638 B(  2-C ,  5-H ) :   0.9430 B(  3-C ,  6-H ) :   0.9356
B(  3-C ,  7-H ) :   0.9275

-----------------------------------------------------------------------------
         ABSORPTION SPECTRUM VIA TRANSITION ELECTRIC DIPOLE MOMENTS
-----------------------------------------------------------------------------
State   Energy    Wavelength  fosc         T2        TX        TY        TZ
        (cm-1)      (nm)                 (au**2)    (au)      (au)      (au)
-----------------------------------------------------------------------------
   1   28173.2    354.9   0.000707879   0.00827   0.08146   0.01214   0.03858

FINAL SINGLE POINT ENERGY      -191.641459845524

DIPOLE MOMENT
-------------
                                X             Y             Z
Electronic contribution:     -1.63470      -2.19905      -0.10152
Nuclear contribution   :      2.15529       2.98367       0.13864
                        -----------------------------------------
Total Dipole Moment    :      0.52059       0.78462       0.03712
                        -----------------------------------------
Magnitude (a.u.)       :      0.94235
Magnitude (Debye)      :      2.39525

Rotational constants in cm-1:     0.853655     0.195600     0.159372
Rotational constants in MHz : 25591.927693  5863.933520  4777.852931

                             ****ORCA TERMINATED NORMALLY****
TOTAL RUN TIME: 0 days 0 hours 3 minutes 21 seconds 300 msec
