                         Program Version 5.0.3 -  RELEASE  -
|  1> ! B3LYP cc-pVDZ
|  2> !TightSCF
|  3> %scf
|  4>  ConvForced true
|  5>  convergence tight
|  6>  MaxIter 500
|  7> end
|  8>
|  9> %tddft
| 10>  nroots 1
| 11> end
| 12>
| 13> # 	22990
| 14> * xyz 0 1
| 15> 		C   -0.529504  -0.455807   0.032820
| 16> 		O   -0.629356  -1.643629  -0.018425
| 17> 		C    0.636614   0.427814  -0.024381
| 18> 		C    1.830358  -0.118497   0.000648
| 19> 		H   -1.425853   0.101740   0.103456
| 20> 		H    0.467002   1.454798  -0.102987
| 21> 		H    2.063033  -1.056339   0.080745
| 22> 		H    2.778288   0.583695   0.100840
| 23> *
| 24>
| 25>                          ****END OF INPUT****

CARTESIAN COORDINATES (ANGSTROEM)
---------------------------------
  C     -0.529504   -0.455807    0.032820
  O     -0.629356   -1.643629   -0.018425
  C      0.636614    0.427814   -0.024381
  C      1.830358   -0.118497    0.000648
  H     -1.425853    0.101740    0.103456
  H      0.467002    1.454798   -0.102987
  H      2.063033   -1.056339    0.080745
  H      2.778288    0.583695    0.100840

 Total Charge           Charge          ....    0
 Multiplicity           Mult            ....    1
 Number of Electrons    NEL             ....   30
 Basis Dimension        Dim             ....   76

ORBITAL ENERGIES
----------------

  NO   OCC          E(Eh)            E(eV)
   0   2.0000     -19.134506      -520.6764
   1   2.0000     -10.263309      -279.2788
   2   2.0000     -10.209969      -277.8274
   3   2.0000     -10.198977      -277.5283
   4   2.0000      -1.052324       -28.6352
   5   2.0000      -0.808132       -21.9904
   6   2.0000      -0.666570       -18.1383
   7   2.0000      -0.561066       -15.2674
   8   2.0000      -0.511442       -13.9170
   9   2.0000      -0.460489       -12.5305
  10   2.0000      -0.422827       -11.5057
  11   2.0000      -0.402302       -10.9472
  12   2.0000      -0.384390       -10.4598
  13   2.0000      -0.295146        -8.0313
  14   2.0000      -0.249915        -6.8005
  15   0.0000      -0.066619        -1.8128
  16   0.0000       0.058507         1.5921
  17   0.0000       0.070811         1.9269
  18   0.0000       0.100014         2.7215
  19   0.0000       0.136551         3.7157

MULLIKEN ATOMIC CHARGES
-----------------------
   0 C :    0.209363
   1 O :   -0.180612
   2 C :   -0.094125
   3 C :    0.123033
   4 H :   -0.053247
   5 H :   -0.022005
   6 H :   -0.019712
   7 H :    0.037305
Sum of atomic charges:   -0.0000000

LOEWDIN ATOMIC CHARGES
----------------------
   0 C :   -0.045077
   1 O :    0.011474
   2 C :   -0.069419
   3 C :    0.057287
   4 H :   -0.020053
   5 H :    0.024243
   6 H :   -0.006792
   7 H :    0.048337

  Mayer bond orders larger than 0.100000
B(  0-C ,  1-O ) :   2.2273 B(  0-C ,  2-C ) :   1.0699 B(  0-C ,  4-H ) :   0.9204
B(  2-C ,  3-C ) :   1.9620 B(  2-C ,  5-H ) :   0.9444 B(  3-C ,  6-H ) :   0.9435
B(  3-C ,  7-H ) :   0.9468

-----------------------------------------------------------------------------
         ABSORPTION SPECTRUM VIA TRANSITION ELECTRIC DIPOLE MOMENTS
-----------------------------------------------------------------------------
State   Energy    Wavelength  fosc         T2        TX        TY        TZ
        (cm-1)      (nm)                 (au**2)    (au)      (au)      (au)
-----------------------------------------------------------------------------
   1   27562.7    362.8   0.000071535   0.00085   0.01210   0.00481   0.02617

FINAL SINGLE POINT ENERGY      -191.656156795166

DIPOLE MOMENT
-------------
                                X             Y             Z
Electronic contribution:     -1.99918      -1.91210      -0.12074
Nuclear contribution   :      2.48298       2.80451       0.17067
                        -----------------------------------------
Total Dipole Moment    :      0.48380       0.89241       0.04992
                        -----------------------------------------
Magnitude (a.u.)       :      1.01634
Magnitude (Debye)      :      2.58333

Rotational constants in cm-1:     0.826660     0.204608     0.164217
Rotational constants in MHz : 24782.653139  6133.990895  4923.088882

                             ****ORCA TERMINATED NORMALLY****
TOTAL RUN TIME: 0 days 0 hours 3 minutes 15 seconds 401 msec
