                         Program Version 5.0.3 -  RELEASE  -
|  1> ! HF-3c
|  2> !TightSCF
|  3> %scf
|  4>  ConvForced true
|  5>  convergence tight
|  6>  MaxIter 500
|  7> end
|  8>
|  9> %tddft
| 10>  nroots 1
| 11> end
| 12>
| 13> # 	17187
| 14> * xyz 0 1
| 15> 		C   -1.164233  -0.380380   0.032728
| 16> 		O   -1.451967  -1.367704  -0.557946
| 17> 		C    0.000694   0.470289  -0.220251
| 18> 		C    1.199992   0.052095   0.086550
| 19> 		H   -1.931567   0.098147   0.722454
| 20> 		H   -0.207043   1.598747  -0.383760
| 21> 		H    1.455332  -0.985673   0.351460
| 22> 		H    2.112508   0.569705  -0.045735
| 23> *
| 24>
| 25>                          ****END OF INPUT****

CARTESIAN COORDINATES (ANGSTROEM)
---------------------------------
  C     -1.164233   -0.380380    0.032728
  O     -1.451967   -1.367704   -0.557946
  C      0.000694    0.470289   -0.220251
  C      1.199992    0.052095    0.086550
  H     -1.931567    0.098147    0.722454
  H     -0.207043    1.598747   -0.383760
  H      1.455332   -0.985673    0.351460
  H      2.112508    0.569705   -0.045735

 Total Charge           Charge          ....    0
 Multiplicity           Mult            ....    1
 Number of Electrons    NEL             ....   30
 Basis Dimension        Dim             ....   24

ORBITAL ENERGIES
----------------

  NO   OCC          E(Eh)            E(eV)
   0   2.0000     -20.379593      -554.5569
   1   2.0000     -11.304797      -307.6192
   2   2.0000     -11.195378      -304.6417
   3   2.0000     -11.184709      -304.3514
   4   2.0000      -1.423494       -38.7352
   5   2.0000      -1.087749       -29.5991
   6   2.0000      -0.891117       -24.2485
   7   2.0000      -0.750552       -20.4236
   8   2.0000      -0.695528       -18.9263
   9   2.0000      -0.635690       -17.2980
  10   2.0000      -0.614071       -16.7097
  11   2.0000      -0.536458       -14.5978
  12   2.0000      -0.517342       -14.0776
  13   2.0000      -0.415192       -11.2980
  14   2.0000      -0.401716       -10.9313
  15   0.0000       0.164870         4.4863
  16   0.0000       0.259869         7.0714
  17   0.0000       0.527227        14.3466
  18   0.0000       0.602851        16.4044
  19   0.0000       0.656858        17.8740

MULLIKEN ATOMIC CHARGES
-----------------------
   0 C :    0.179623
   1 O :   -0.348534
   2 C :   -0.165429
   3 C :   -0.238451
   4 H :    0.132581
   5 H :    0.155374
   6 H :    0.144247
   7 H :    0.140589
Sum of atomic charges:   -0.0000000

LOEWDIN ATOMIC CHARGES
----------------------
   0 C :    0.152001
   1 O :   -0.245254
   2 C :   -0.124892
   3 C :   -0.143077
   4 H :    0.071265
   5 H :    0.108255
   6 H :    0.093867
   7 H :    0.087835

  Mayer bond orders larger than 0.100000
B(  0-C ,  1-O ) :   1.9353 B(  0-C ,  2-C ) :   1.0030 B(  0-C ,  4-H ) :   0.9120
B(  2-C ,  3-C ) :   1.9822 B(  2-C ,  5-H ) :   0.9432 B(  3-C ,  6-H ) :   0.9617
B(  3-C ,  7-H ) :   0.9643

-----------------------------------------------------------------------------
         ABSORPTION SPECTRUM VIA TRANSITION ELECTRIC DIPOLE MOMENTS
-----------------------------------------------------------------------------
State   Energy    Wavelength  fosc         T2        TX        TY        TZ
        (cm-1)      (nm)                 (au**2)    (au)      (au)      (au)
-----------------------------------------------------------------------------
   1   35199.6    284.1   0.000755056   0.00706  -0.08195  -0.01355   0.01274

Dispersion correction           -0.025320001
FINAL SINGLE POINT ENERGY      -189.315077363580

DIPOLE MOMENT
-------------
                                X             Y             Z
Electronic contribution:     -2.35823      -1.61780      -0.75465
Nuclear contribution   :      2.75422       2.45058       1.23404
                        -----------------------------------------
Total Dipole Moment    :      0.39599       0.83278       0.47939
                        -----------------------------------------
Magnitude (a.u.)       :      1.03930
Magnitude (Debye)      :      2.64170

Rotational constants in cm-1:     0.901151     0.185679     0.163318
Rotational constants in MHz : 27015.825475  5566.511999  4896.158515

                             ****ORCA TERMINATED NORMALLY****
TOTAL RUN TIME: 0 days 0 hours 0 minutes 11 seconds 83 msec
