                         Program Version 5.0.3 -  RELEASE  -
|  1> ! B3LYP cc-pVDZ
|  2> !TightSCF
|  3> %scf
|  4>  ConvForced true
|  5>  convergence tight
|  6>  MaxIter 500
|  7> end
|  8>
|  9> %tddft
| 10>  nroots 1
| 11> end
| 12>
| 13> # 	201
| 14> * xyz 0 1
| 15> 		C   -1.207157  -0.345745  -0.011627
| 16> 		O   -1.226558  -1.517360  -0.223642
| 17> 		C    0.043618   0.469757  -0.133493
| 18> 		C    1.264000  -0.042709   0.010025
| 19> 		H   -2.196640   0.290240   0.397510
| 20> 		H   -0.081332   1.655425  -0.324915
| 21> 		H    1.334035  -1.023734   0.165897
| 22> 		H    2.084239   0.504480   0.088094
| 23> *
| 24>
| 25>                          ****END OF INPUT****

CARTESIAN COORDINATES (ANGSTROEM)
---------------------------------
  C     -1.207157   -0.345745   -0.011627
  O     -1.226558   -1.517360   -0.223642
  C      0.043618    0.469757   -0.133493
  C      1.264000   -0.042709    0.010025
  H     -2.196640    0.290240    0.397510
  H     -0.081332    1.655425   -0.324915
  H      1.334035   -1.023734    0.165897
  H      2.084239    0.504480    0.088094

 Total Charge           Charge          ....    0
 Multiplicity           Mult            ....    1
 Number of Electrons    NEL             ....   30
 Basis Dimension        Dim             ....   76

ORBITAL ENERGIES
----------------

  NO   OCC          E(Eh)            E(eV)
   0   2.0000     -19.147554      -521.0314
   1   2.0000     -10.289489      -279.9912
   2   2.0000     -10.215446      -277.9764
   3   2.0000     -10.193573      -277.3812
   4   2.0000      -1.064588       -28.9689
   5   2.0000      -0.797397       -21.6983
   6   2.0000      -0.657017       -17.8783
   7   2.0000      -0.537162       -14.6169
   8   2.0000      -0.507164       -13.8006
   9   2.0000      -0.452796       -12.3212
  10   2.0000      -0.439793       -11.9674
  11   2.0000      -0.406560       -11.0631
  12   2.0000      -0.378229       -10.2921
  13   2.0000      -0.290864        -7.9148
  14   2.0000      -0.259315        -7.0563
  15   0.0000      -0.063076        -1.7164
  16   0.0000       0.040598         1.1047
  17   0.0000       0.066888         1.8201
  18   0.0000       0.087971         2.3938
  19   0.0000       0.113298         3.0830

MULLIKEN ATOMIC CHARGES
-----------------------
   0 C :    0.145484
   1 O :   -0.160782
   2 C :   -0.186921
   3 C :    0.210308
   4 H :   -0.007877
   5 H :    0.018766
   6 H :   -0.012186
   7 H :   -0.006792
Sum of atomic charges:    0.0000000

LOEWDIN ATOMIC CHARGES
----------------------
   0 C :   -0.052345
   1 O :    0.021576
   2 C :   -0.073126
   3 C :    0.045926
   4 H :   -0.001297
   5 H :    0.042639
   6 H :    0.008709
   7 H :    0.007919

  Mayer bond orders larger than 0.100000
B(  0-C ,  1-O ) :   2.2196 B(  0-C ,  2-C ) :   1.0070 B(  0-C ,  4-H ) :   0.8805
B(  2-C ,  3-C ) :   1.9973 B(  2-C ,  5-H ) :   0.9305 B(  3-C ,  6-H ) :   0.9323
B(  3-C ,  7-H ) :   0.9411

-----------------------------------------------------------------------------
         ABSORPTION SPECTRUM VIA TRANSITION ELECTRIC DIPOLE MOMENTS
-----------------------------------------------------------------------------
State   Energy    Wavelength  fosc         T2        TX        TY        TZ
        (cm-1)      (nm)                 (au**2)    (au)      (au)      (au)
-----------------------------------------------------------------------------
   1   30306.9    330.0   0.000080446   0.00087  -0.00090  -0.01183  -0.02708

FINAL SINGLE POINT ENERGY      -191.640253072539

DIPOLE MOMENT
-------------
                                X             Y             Z
Electronic contribution:     -1.77121      -2.01775      -0.46974
Nuclear contribution   :      2.21205       2.78490       0.63045
                        -----------------------------------------
Total Dipole Moment    :      0.44084       0.76715       0.16071
                        -----------------------------------------
Magnitude (a.u.)       :      0.89927
Magnitude (Debye)      :      2.28576

Rotational constants in cm-1:     0.773040     0.203333     0.163262
Rotational constants in MHz : 23175.145372  6095.767173  4894.484820

                             ****ORCA TERMINATED NORMALLY****
TOTAL RUN TIME: 0 days 0 hours 3 minutes 17 seconds 419 msec
