                         Program Version 5.0.3 -  RELEASE  -
|  1> ! B3LYP cc-pVDZ
|  2> !TightSCF
|  3> %scf
|  4>  ConvForced true
|  5>  convergence tight
|  6>  MaxIter 500
|  7> end
|  8>
|  9> %tddft
| 10>  nroots 1
| 11> end
| 12>
| 13> # 	10022
| 14> * xyz 0 1
| 15> 		C   -1.210247  -0.255164   0.015067
| 16> 		O   -1.157263  -1.434402   0.273761
| 17> 		C    0.017452   0.590238   0.053706
| 18> 		C    1.225110  -0.000814  -0.041115
| 19> 		H   -2.119739   0.271084  -0.331929
| 20> 		H   -0.181992   1.587187   0.388663
| 21> 		H    1.196192  -1.210547  -0.207137
| 22> 		H    2.278875   0.536676  -0.164298
| 23> *
| 24>
| 25>                          ****END OF INPUT****

CARTESIAN COORDINATES (ANGSTROEM)
---------------------------------
  C     -1.210247   -0.255164    0.015067
  O     -1.157263   -1.434402    0.273761
  C      0.017452    0.590238    0.053706
  C      1.225110   -0.000814   -0.041115
  H     -2.119739    0.271084   -0.331929
  H     -0.181992    1.587187    0.388663
  H      1.196192   -1.210547   -0.207137
  H      2.278875    0.536676   -0.164298

 Total Charge           Charge          ....    0
 Multiplicity           Mult            ....    1
 Number of Electrons    NEL             ....   30
 Basis Dimension        Dim             ....   76

ORBITAL ENERGIES
----------------

  NO   OCC          E(Eh)            E(eV)
   0   2.0000     -19.139469      -520.8114
   1   2.0000     -10.275734      -279.6169
   2   2.0000     -10.229053      -278.3467
   3   2.0000     -10.202588      -277.6265
   4   2.0000      -1.049243       -28.5514
   5   2.0000      -0.785573       -21.3765
   6   2.0000      -0.648345       -17.6424
   7   2.0000      -0.537742       -14.6327
   8   2.0000      -0.498320       -13.5600
   9   2.0000      -0.442288       -12.0353
  10   2.0000      -0.431061       -11.7298
  11   2.0000      -0.391100       -10.6424
  12   2.0000      -0.364561        -9.9202
  13   2.0000      -0.284888        -7.7522
  14   2.0000      -0.254837        -6.9345
  15   0.0000      -0.064072        -1.7435
  16   0.0000       0.036431         0.9913
  17   0.0000       0.071720         1.9516
  18   0.0000       0.074900         2.0381
  19   0.0000       0.117917         3.2087

MULLIKEN ATOMIC CHARGES
-----------------------
   0 C :    0.178390
   1 O :   -0.189723
   2 C :   -0.076606
   3 C :   -0.030974
   4 H :   -0.010942
   5 H :   -0.004322
   6 H :    0.071538
   7 H :    0.062639
Sum of atomic charges:   -0.0000000

LOEWDIN ATOMIC CHARGES
----------------------
   0 C :   -0.028593
   1 O :    0.000676
   2 C :   -0.087317
   3 C :   -0.009342
   4 H :   -0.002903
   5 H :    0.022066
   6 H :    0.056421
   7 H :    0.048991

  Mayer bond orders larger than 0.100000
B(  0-C ,  1-O ) :   2.1924 B(  0-C ,  2-C ) :   1.0426 B(  0-C ,  4-H ) :   0.9154
B(  2-C ,  3-C ) :   1.9488 B(  2-C ,  5-H ) :   0.9485 B(  3-C ,  6-H ) :   0.9188
B(  3-C ,  7-H ) :   0.9431

-----------------------------------------------------------------------------
         ABSORPTION SPECTRUM VIA TRANSITION ELECTRIC DIPOLE MOMENTS
-----------------------------------------------------------------------------
State   Energy    Wavelength  fosc         T2        TX        TY        TZ
        (cm-1)      (nm)                 (au**2)    (au)      (au)      (au)
-----------------------------------------------------------------------------
   1   29116.7    343.4   0.000927324   0.01048  -0.09936  -0.00444  -0.02435

FINAL SINGLE POINT ENERGY      -191.655338339345

DIPOLE MOMENT
-------------
                                X             Y             Z
Electronic contribution:     -1.95311      -1.44348       0.41625
Nuclear contribution   :      2.22233       2.28211      -0.58653
                        -----------------------------------------
Total Dipole Moment    :      0.26922       0.83863      -0.17028
                        -----------------------------------------
Magnitude (a.u.)       :      0.89709
Magnitude (Debye)      :      2.28023

Rotational constants in cm-1:     0.721763     0.214863     0.168039
Rotational constants in MHz : 21637.922078  6441.429421  5037.696677

                             ****ORCA TERMINATED NORMALLY****
TOTAL RUN TIME: 0 days 0 hours 3 minutes 15 seconds 673 msec
