                         Program Version 5.0.3 -  RELEASE  -
|  1> ! B3LYP cc-pVDZ
|  2> !TightSCF
|  3> %scf
|  4>  ConvForced true
|  5>  convergence tight
|  6>  MaxIter 500
|  7> end
|  8>
|  9> %tddft
| 10>  nroots 1
| 11> end
| 12>
| 13> # 	1041
| 14> * xyz 0 1
| 15> 		C   -1.228288  -0.340940  -0.106317
| 16> 		O   -1.215194  -1.531675   0.143915
| 17> 		C    0.051343   0.454612   0.062934
| 18> 		C    1.221146   0.030729  -0.071208
| 19> 		H   -2.127513   0.356466  -0.399817
| 20> 		H   -0.229654   1.578639   0.528048
| 21> 		H    1.421963  -1.099239  -0.306560
| 22> 		H    2.070297   0.573809   0.095144
| 23> *
| 24>
| 25>                          ****END OF INPUT****

CARTESIAN COORDINATES (ANGSTROEM)
---------------------------------
  C     -1.228288   -0.340940   -0.106317
  O     -1.215194   -1.531675    0.143915
  C      0.051343    0.454612    0.062934
  C      1.221146    0.030729   -0.071208
  H     -2.127513    0.356466   -0.399817
  H     -0.229654    1.578639    0.528048
  H      1.421963   -1.099239   -0.306560
  H      2.070297    0.573809    0.095144

 Total Charge           Charge          ....    0
 Multiplicity           Mult            ....    1
 Number of Electrons    NEL             ....   30
 Basis Dimension        Dim             ....   76

ORBITAL ENERGIES
----------------

  NO   OCC          E(Eh)            E(eV)
   0   2.0000     -19.150083      -521.1003
   1   2.0000     -10.289252      -279.9848
   2   2.0000     -10.206865      -277.7429
   3   2.0000     -10.196960      -277.4734
   4   2.0000      -1.051059       -28.6008
   5   2.0000      -0.802033       -21.8244
   6   2.0000      -0.653617       -17.7858
   7   2.0000      -0.535362       -14.5679
   8   2.0000      -0.490736       -13.3536
   9   2.0000      -0.453891       -12.3510
  10   2.0000      -0.441530       -12.0146
  11   2.0000      -0.395715       -10.7680
  12   2.0000      -0.355983        -9.6868
  13   2.0000      -0.300507        -8.1772
  14   2.0000      -0.258273        -7.0280
  15   0.0000      -0.057265        -1.5583
  16   0.0000       0.037084         1.0091
  17   0.0000       0.059564         1.6208
  18   0.0000       0.090359         2.4588
  19   0.0000       0.100526         2.7354

MULLIKEN ATOMIC CHARGES
-----------------------
   0 C :    0.164798
   1 O :   -0.180610
   2 C :   -0.170806
   3 C :    0.112616
   4 H :    0.005908
   5 H :    0.017907
   6 H :    0.044798
   7 H :    0.005390
Sum of atomic charges:    0.0000000

LOEWDIN ATOMIC CHARGES
----------------------
   0 C :   -0.022502
   1 O :    0.003692
   2 C :   -0.092242
   3 C :   -0.007605
   4 H :    0.005064
   5 H :    0.044482
   6 H :    0.052283
   7 H :    0.016828

  Mayer bond orders larger than 0.100000
B(  0-C ,  1-O ) :   2.2078 B(  0-C ,  2-C ) :   1.0093 B(  0-C ,  4-H ) :   0.8929
B(  2-C ,  3-C ) :   2.0483 B(  2-C ,  5-H ) :   0.9127 B(  3-C ,  6-H ) :   0.9187
B(  3-C ,  7-H ) :   0.9249

-----------------------------------------------------------------------------
         ABSORPTION SPECTRUM VIA TRANSITION ELECTRIC DIPOLE MOMENTS
-----------------------------------------------------------------------------
State   Energy    Wavelength  fosc         T2        TX        TY        TZ
        (cm-1)      (nm)                 (au**2)    (au)      (au)      (au)
-----------------------------------------------------------------------------
   1   30437.8    328.5   0.000203945   0.00221  -0.04331   0.00642  -0.01699

FINAL SINGLE POINT ENERGY      -191.635009987302

DIPOLE MOMENT
-------------
                                X             Y             Z
Electronic contribution:     -1.94052      -1.94358       0.02867
Nuclear contribution   :      2.24087       2.73458      -0.13252
                        -----------------------------------------
Total Dipole Moment    :      0.30035       0.79101      -0.10385
                        -----------------------------------------
Magnitude (a.u.)       :      0.85246
Magnitude (Debye)      :      2.16678

Rotational constants in cm-1:     0.774296     0.203331     0.164349
Rotational constants in MHz : 23212.817560  6095.716964  4927.061851

                             ****ORCA TERMINATED NORMALLY****
TOTAL RUN TIME: 0 days 0 hours 3 minutes 21 seconds 412 msec
