                         Program Version 5.0.3 -  RELEASE  -
|  1> ! HF-3c
|  2> !TightSCF
|  3> %scf
|  4>  ConvForced true
|  5>  convergence tight
|  6>  MaxIter 500
|  7> end
|  8>
|  9> %tddft
| 10>  nroots 1
| 11> end
| 12>
| 13> # 	18650
| 14> * xyz 0 1
| 15> 		C   -1.163771  -0.341126   0.045195
| 16> 		O   -1.685813  -0.990188   0.943149
| 17> 		C    0.045299   0.447105   0.175674
| 18> 		C    1.194083   0.004969  -0.158938
| 19> 		H   -1.603062  -0.265888  -0.983348
| 20> 		H   -0.011788   1.419931   1.020073
| 21> 		H    1.097691  -0.871548  -0.907546
| 22> 		H    2.193242   0.548677  -0.122692
| 23> *
| 24>
| 25>                          ****END OF INPUT****

CARTESIAN COORDINATES (ANGSTROEM)
---------------------------------
  C     -1.163771   -0.341126    0.045195
  O     -1.685813   -0.990188    0.943149
  C      0.045299    0.447105    0.175674
  C      1.194083    0.004969   -0.158938
  H     -1.603062   -0.265888   -0.983348
  H     -0.011788    1.419931    1.020073
  H      1.097691   -0.871548   -0.907546
  H      2.193242    0.548677   -0.122692

 Total Charge           Charge          ....    0
 Multiplicity           Mult            ....    1
 Number of Electrons    NEL             ....   30
 Basis Dimension        Dim             ....   24

ORBITAL ENERGIES
----------------

  NO   OCC          E(Eh)            E(eV)
   0   2.0000     -20.372536      -554.3649
   1   2.0000     -11.298563      -307.4495
   2   2.0000     -11.187285      -304.4215
   3   2.0000     -11.178183      -304.1738
   4   2.0000      -1.395856       -37.9832
   5   2.0000      -1.093451       -29.7543
   6   2.0000      -0.882097       -24.0031
   7   2.0000      -0.740253       -20.1433
   8   2.0000      -0.655807       -17.8454
   9   2.0000      -0.635070       -17.2811
  10   2.0000      -0.602056       -16.3828
  11   2.0000      -0.518879       -14.1194
  12   2.0000      -0.476424       -12.9642
  13   2.0000      -0.414290       -11.2734
  14   2.0000      -0.405768       -11.0415
  15   0.0000       0.170283         4.6336
  16   0.0000       0.243160         6.6167
  17   0.0000       0.472259        12.8508
  18   0.0000       0.566967        15.4279
  19   0.0000       0.607105        16.5202

MULLIKEN ATOMIC CHARGES
-----------------------
   0 C :    0.165140
   1 O :   -0.340233
   2 C :   -0.160709
   3 C :   -0.238367
   4 H :    0.137335
   5 H :    0.155629
   6 H :    0.132246
   7 H :    0.148959
Sum of atomic charges:   -0.0000000

LOEWDIN ATOMIC CHARGES
----------------------
   0 C :    0.151599
   1 O :   -0.250155
   2 C :   -0.128728
   3 C :   -0.156646
   4 H :    0.075152
   5 H :    0.117407
   6 H :    0.089592
   7 H :    0.101777

  Mayer bond orders larger than 0.100000
B(  0-C ,  1-O ) :   1.9375 B(  0-C ,  2-C ) :   1.0041 B(  0-C ,  4-H ) :   0.9176
B(  2-C ,  3-C ) :   2.0028 B(  2-C ,  5-H ) :   0.9246 B(  3-C ,  6-H ) :   0.9557
B(  3-C ,  7-H ) :   0.9571

-----------------------------------------------------------------------------
         ABSORPTION SPECTRUM VIA TRANSITION ELECTRIC DIPOLE MOMENTS
-----------------------------------------------------------------------------
State   Energy    Wavelength  fosc         T2        TX        TY        TZ
        (cm-1)      (nm)                 (au**2)    (au)      (au)      (au)
-----------------------------------------------------------------------------
   1   33597.8    297.6   0.000177927   0.00174  -0.03279  -0.02076  -0.01540

Dispersion correction           -0.025408399
FINAL SINGLE POINT ENERGY      -189.285493671755

DIPOLE MOMENT
-------------
                                X             Y             Z
Electronic contribution:     -2.62460      -1.08253       1.25457
Nuclear contribution   :      3.18544       1.68387      -1.91484
                        -----------------------------------------
Total Dipole Moment    :      0.56083       0.60134      -0.66027
                        -----------------------------------------
Magnitude (a.u.)       :      1.05456
Magnitude (Debye)      :      2.68048

Rotational constants in cm-1:     1.036936     0.166699     0.163820
Rotational constants in MHz : 31086.561218  4997.519059  4911.186991

                             ****ORCA TERMINATED NORMALLY****
TOTAL RUN TIME: 0 days 0 hours 0 minutes 11 seconds 876 msec
