                         Program Version 5.0.3 -  RELEASE  -
|  1> ! B3LYP cc-pVDZ
|  2> !TightSCF
|  3> %scf
|  4>  ConvForced true
|  5>  convergence tight
|  6>  MaxIter 500
|  7> end
|  8>
|  9> %tddft
| 10>  nroots 1
| 11> end
| 12>
| 13> # 	22960
| 14> * xyz 0 1
| 15> 		C   -0.593878  -0.444730   0.011063
| 16> 		O   -0.547876  -1.610055  -0.005747
| 17> 		C    0.585065   0.442161  -0.053313
| 18> 		C    1.841186  -0.163878   0.023415
| 19> 		H   -1.542577   0.198788   0.223426
| 20> 		H    0.515344   1.473425   0.025882
| 21> 		H    2.041587  -1.273811  -0.070400
| 22> 		H    2.794408   0.416269   0.143074
| 23> *
| 24>
| 25>                          ****END OF INPUT****

CARTESIAN COORDINATES (ANGSTROEM)
---------------------------------
  C     -0.593878   -0.444730    0.011063
  O     -0.547876   -1.610055   -0.005747
  C      0.585065    0.442161   -0.053313
  C      1.841186   -0.163878    0.023415
  H     -1.542577    0.198788    0.223426
  H      0.515344    1.473425    0.025882
  H      2.041587   -1.273811   -0.070400
  H      2.794408    0.416269    0.143074

 Total Charge           Charge          ....    0
 Multiplicity           Mult            ....    1
 Number of Electrons    NEL             ....   30
 Basis Dimension        Dim             ....   76

ORBITAL ENERGIES
----------------

  NO   OCC          E(Eh)            E(eV)
   0   2.0000     -19.139431      -520.8104
   1   2.0000     -10.275653      -279.6147
   2   2.0000     -10.225766      -278.2572
   3   2.0000     -10.203744      -277.6580
   4   2.0000      -1.072494       -29.1841
   5   2.0000      -0.783096       -21.3091
   6   2.0000      -0.649874       -17.6840
   7   2.0000      -0.542132       -14.7522
   8   2.0000      -0.505871       -13.7654
   9   2.0000      -0.451492       -12.2857
  10   2.0000      -0.419448       -11.4138
  11   2.0000      -0.409564       -11.1448
  12   2.0000      -0.384729       -10.4690
  13   2.0000      -0.279788        -7.6134
  14   2.0000      -0.255558        -6.9541
  15   0.0000      -0.069941        -1.9032
  16   0.0000       0.057332         1.5601
  17   0.0000       0.073805         2.0083
  18   0.0000       0.083785         2.2799
  19   0.0000       0.122686         3.3385

MULLIKEN ATOMIC CHARGES
-----------------------
   0 C :    0.169753
   1 O :   -0.148842
   2 C :   -0.074703
   3 C :    0.008805
   4 H :   -0.031709
   5 H :   -0.023345
   6 H :    0.058374
   7 H :    0.041668
Sum of atomic charges:   -0.0000000

LOEWDIN ATOMIC CHARGES
----------------------
   0 C :   -0.072642
   1 O :    0.041423
   2 C :   -0.075829
   3 C :    0.031997
   4 H :   -0.011823
   5 H :    0.013687
   6 H :    0.040250
   7 H :    0.032937

  Mayer bond orders larger than 0.100000
B(  0-C ,  1-O ) :   2.2483 B(  0-C ,  2-C ) :   1.0425 B(  0-C ,  4-H ) :   0.8980
B(  2-C ,  3-C ) :   1.9258 B(  2-C ,  5-H ) :   0.9497 B(  3-C ,  6-H ) :   0.9468
B(  3-C ,  7-H ) :   0.9523

-----------------------------------------------------------------------------
         ABSORPTION SPECTRUM VIA TRANSITION ELECTRIC DIPOLE MOMENTS
-----------------------------------------------------------------------------
State   Energy    Wavelength  fosc         T2        TX        TY        TZ
        (cm-1)      (nm)                 (au**2)    (au)      (au)      (au)
-----------------------------------------------------------------------------
   1   28650.7    349.0   0.000367547   0.00422   0.05980   0.01504   0.02051

FINAL SINGLE POINT ENERGY      -191.663945206964

DIPOLE MOMENT
-------------
                                X             Y             Z
Electronic contribution:     -1.97036      -1.76243      -0.25549
Nuclear contribution   :      2.41725       2.55068       0.30156
                        -----------------------------------------
Total Dipole Moment    :      0.44689       0.78825       0.04607
                        -----------------------------------------
Magnitude (a.u.)       :      0.90729
Magnitude (Debye)      :      2.30614

Rotational constants in cm-1:     0.720449     0.216522     0.166880
Rotational constants in MHz : 21598.507299  6491.154420  5002.923528

                             ****ORCA TERMINATED NORMALLY****
TOTAL RUN TIME: 0 days 0 hours 3 minutes 23 seconds 24 msec
