                         Program Version 5.0.3 -  RELEASE  -
|  1> ! B3LYP cc-pVDZ
|  2> !TightSCF
|  3> %scf
|  4>  ConvForced true
|  5>  convergence tight
|  6>  MaxIter 500
|  7> end
|  8>
|  9> %tddft
| 10>  nroots 1
| 11> end
| 12>
| 13> # 	3251
| 14> * xyz 0 1
| 15> 		C   -1.213634  -0.303688  -0.015524
| 16> 		O   -1.704032  -0.882744  -0.924456
| 17> 		C   -0.006957   0.534192  -0.142196
| 18> 		C    1.190919   0.064984   0.133148
| 19> 		H   -1.580415  -0.463045   0.906976
| 20> 		H   -0.047121   1.435127  -0.800750
| 21> 		H    1.228724  -0.892465   0.694461
| 22> 		H    2.179266   0.539566   0.190034
| 23> *
| 24>
| 25>                          ****END OF INPUT****

CARTESIAN COORDINATES (ANGSTROEM)
---------------------------------
  C     -1.213634   -0.303688   -0.015524
  O     -1.704032   -0.882744   -0.924456
  C     -0.006957    0.534192   -0.142196
  C      1.190919    0.064984    0.133148
  H     -1.580415   -0.463045    0.906976
  H     -0.047121    1.435127   -0.800750
  H      1.228724   -0.892465    0.694461
  H      2.179266    0.539566    0.190034

 Total Charge           Charge          ....    0
 Multiplicity           Mult            ....    1
 Number of Electrons    NEL             ....   30
 Basis Dimension        Dim             ....   76

ORBITAL ENERGIES
----------------

  NO   OCC          E(Eh)            E(eV)
   0   2.0000     -19.141533      -520.8676
   1   2.0000     -10.269640      -279.4511
   2   2.0000     -10.205079      -277.6943
   3   2.0000     -10.203148      -277.6418
   4   2.0000      -1.066356       -29.0170
   5   2.0000      -0.799600       -21.7582
   6   2.0000      -0.653112       -17.7721
   7   2.0000      -0.576092       -15.6763
   8   2.0000      -0.492839       -13.4108
   9   2.0000      -0.471741       -12.8367
  10   2.0000      -0.443903       -12.0792
  11   2.0000      -0.390145       -10.6164
  12   2.0000      -0.366103        -9.9622
  13   2.0000      -0.291990        -7.9454
  14   2.0000      -0.255409        -6.9500
  15   0.0000      -0.041640        -1.1331
  16   0.0000       0.004818         0.1311
  17   0.0000       0.088406         2.4057
  18   0.0000       0.091013         2.4766
  19   0.0000       0.117040         3.1848

MULLIKEN ATOMIC CHARGES
-----------------------
   0 C :    0.220706
   1 O :   -0.165623
   2 C :   -0.102349
   3 C :    0.010907
   4 H :   -0.041873
   5 H :    0.028163
   6 H :    0.014768
   7 H :    0.035301
Sum of atomic charges:   -0.0000000

LOEWDIN ATOMIC CHARGES
----------------------
   0 C :   -0.024547
   1 O :    0.039262
   2 C :   -0.064655
   3 C :   -0.029590
   4 H :   -0.022937
   5 H :    0.043388
   6 H :    0.026244
   7 H :    0.032836

  Mayer bond orders larger than 0.100000
B(  0-C ,  1-O ) :   2.2555 B(  0-C ,  2-C ) :   0.9885 B(  0-C ,  4-H ) :   0.9332
B(  2-C ,  3-C ) :   2.0248 B(  2-C ,  5-H ) :   0.9302 B(  3-C ,  6-H ) :   0.9461
B(  3-C ,  7-H ) :   0.9537

-----------------------------------------------------------------------------
         ABSORPTION SPECTRUM VIA TRANSITION ELECTRIC DIPOLE MOMENTS
-----------------------------------------------------------------------------
State   Energy    Wavelength  fosc         T2        TX        TY        TZ
        (cm-1)      (nm)                 (au**2)    (au)      (au)      (au)
-----------------------------------------------------------------------------
   1   32841.3    304.5   0.001265094   0.01268  -0.10719  -0.02314  -0.02562

FINAL SINGLE POINT ENERGY      -191.628578567592

DIPOLE MOMENT
-------------
                                X             Y             Z
Electronic contribution:     -2.86790      -0.79038      -1.25858
Nuclear contribution   :      3.38058       1.23647       1.86243
                        -----------------------------------------
Total Dipole Moment    :      0.51268       0.44609       0.60386
                        -----------------------------------------
Magnitude (a.u.)       :      0.90911
Magnitude (Debye)      :      2.31078

Rotational constants in cm-1:     1.069460     0.168280     0.163942
Rotational constants in MHz : 32061.592670  5044.915187  4914.851450

                             ****ORCA TERMINATED NORMALLY****
TOTAL RUN TIME: 0 days 0 hours 3 minutes 19 seconds 939 msec
