                         Program Version 5.0.3 -  RELEASE  -
|  1> ! HF-3c
|  2> !TightSCF
|  3> %scf
|  4>  ConvForced true
|  5>  convergence tight
|  6>  MaxIter 500
|  7> end
|  8>
|  9> %tddft
| 10>  nroots 1
| 11> end
| 12>
| 13> # 	27536
| 14> * xyz 0 1
| 15> 		C   -0.599296  -0.417616   0.011385
| 16> 		O   -0.565917  -1.653184  -0.000904
| 17> 		C    0.631430   0.431899  -0.029053
| 18> 		C    1.841057  -0.122951  -0.005889
| 19> 		H   -1.509514   0.161333   0.029464
| 20> 		H    0.404699   1.528880   0.111770
| 21> 		H    1.972591  -1.264007   0.054297
| 22> 		H    2.746360   0.379849   0.108852
| 23> *
| 24>
| 25>                          ****END OF INPUT****

CARTESIAN COORDINATES (ANGSTROEM)
---------------------------------
  C     -0.599296   -0.417616    0.011385
  O     -0.565917   -1.653184   -0.000904
  C      0.631430    0.431899   -0.029053
  C      1.841057   -0.122951   -0.005889
  H     -1.509514    0.161333    0.029464
  H      0.404699    1.528880    0.111770
  H      1.972591   -1.264007    0.054297
  H      2.746360    0.379849    0.108852

 Total Charge           Charge          ....    0
 Multiplicity           Mult            ....    1
 Number of Electrons    NEL             ....   30
 Basis Dimension        Dim             ....   24

ORBITAL ENERGIES
----------------

  NO   OCC          E(Eh)            E(eV)
   0   2.0000     -20.359013      -553.9969
   1   2.0000     -11.289255      -307.1962
   2   2.0000     -11.190169      -304.5000
   3   2.0000     -11.186271      -304.3939
   4   2.0000      -1.382039       -37.6072
   5   2.0000      -1.071194       -29.1487
   6   2.0000      -0.895799       -24.3759
   7   2.0000      -0.749542       -20.3961
   8   2.0000      -0.688213       -18.7272
   9   2.0000      -0.615838       -16.7578
  10   2.0000      -0.590728       -16.0745
  11   2.0000      -0.530784       -14.4434
  12   2.0000      -0.517000       -14.0683
  13   2.0000      -0.414738       -11.2856
  14   2.0000      -0.390567       -10.6279
  15   0.0000       0.128644         3.5006
  16   0.0000       0.302603         8.2342
  17   0.0000       0.519016        14.1231
  18   0.0000       0.611829        16.6487
  19   0.0000       0.657542        17.8926

MULLIKEN ATOMIC CHARGES
-----------------------
   0 C :    0.156673
   1 O :   -0.349000
   2 C :   -0.171867
   3 C :   -0.218434
   4 H :    0.136975
   5 H :    0.141792
   6 H :    0.161954
   7 H :    0.141908
Sum of atomic charges:    0.0000000

LOEWDIN ATOMIC CHARGES
----------------------
   0 C :    0.146934
   1 O :   -0.262074
   2 C :   -0.131804
   3 C :   -0.119201
   4 H :    0.072314
   5 H :    0.093540
   6 H :    0.112237
   7 H :    0.088054

  Mayer bond orders larger than 0.100000
B(  0-C ,  1-O ) :   1.9070 B(  0-C ,  2-C ) :   1.0228 B(  0-C ,  4-H ) :   0.9305
B(  2-C ,  3-C ) :   1.9488 B(  2-C ,  5-H ) :   0.9576 B(  3-C ,  6-H ) :   0.9544
B(  3-C ,  7-H ) :   0.9665

-----------------------------------------------------------------------------
         ABSORPTION SPECTRUM VIA TRANSITION ELECTRIC DIPOLE MOMENTS
-----------------------------------------------------------------------------
State   Energy    Wavelength  fosc         T2        TX        TY        TZ
        (cm-1)      (nm)                 (au**2)    (au)      (au)      (au)
-----------------------------------------------------------------------------
   1   31382.7    318.6   0.000045003   0.00047   0.02146   0.00184   0.00289

Dispersion correction           -0.025592329
FINAL SINGLE POINT ENERGY      -189.344892982871

DIPOLE MOMENT
-------------
                                X             Y             Z
Electronic contribution:     -1.95626      -1.63047      -0.20011
Nuclear contribution   :      2.23403       2.54227       0.28492
                        -----------------------------------------
Total Dipole Moment    :      0.27776       0.91180       0.08481
                        -----------------------------------------
Magnitude (a.u.)       :      0.95694
Magnitude (Debye)      :      2.43235

Rotational constants in cm-1:     0.725721     0.210715     0.163428
Rotational constants in MHz : 21756.555259  6317.071494  4899.460481

                             ****ORCA TERMINATED NORMALLY****
TOTAL RUN TIME: 0 days 0 hours 0 minutes 16 seconds 103 msec
