                         Program Version 5.0.3 -  RELEASE  -
|  1> ! B3LYP cc-pVDZ
|  2> !TightSCF
|  3> %scf
|  4>  ConvForced true
|  5>  convergence tight
|  6>  MaxIter 500
|  7> end
|  8>
|  9> %tddft
| 10>  nroots 1
| 11> end
| 12>
| 13> # 	27333
| 14> * xyz 0 1
| 15> 		C   -0.556349  -0.402844   0.018129
| 16> 		O   -0.637542  -1.696072   0.000396
| 17> 		C    0.661124   0.397799   0.015681
| 18> 		C    1.846424  -0.058997  -0.006124
| 19> 		H   -1.595950   0.019583  -0.290387
| 20> 		H    0.608089   1.446612   0.081554
| 21> 		H    2.150236  -1.101063   0.013695
| 22> 		H    2.709984   0.566197  -0.141130
| 23> *
| 24>
| 25>                          ****END OF INPUT****

CARTESIAN COORDINATES (ANGSTROEM)
---------------------------------
  C     -0.556349   -0.402844    0.018129
  O     -0.637542   -1.696072    0.000396
  C      0.661124    0.397799    0.015681
  C      1.846424   -0.058997   -0.006124
  H     -1.595950    0.019583   -0.290387
  H      0.608089    1.446612    0.081554
  H      2.150236   -1.101063    0.013695
  H      2.709984    0.566197   -0.141130

 Total Charge           Charge          ....    0
 Multiplicity           Mult            ....    1
 Number of Electrons    NEL             ....   30
 Basis Dimension        Dim             ....   76

ORBITAL ENERGIES
----------------

  NO   OCC          E(Eh)            E(eV)
   0   2.0000     -19.135551      -520.7048
   1   2.0000     -10.282682      -279.8060
   2   2.0000     -10.208759      -277.7944
   3   2.0000     -10.203698      -277.6567
   4   2.0000      -0.999629       -27.2013
   5   2.0000      -0.818821       -22.2813
   6   2.0000      -0.662960       -18.0401
   7   2.0000      -0.552983       -15.0474
   8   2.0000      -0.511835       -13.9277
   9   2.0000      -0.454939       -12.3795
  10   2.0000      -0.412237       -11.2175
  11   2.0000      -0.384925       -10.4743
  12   2.0000      -0.368529       -10.0282
  13   2.0000      -0.296752        -8.0750
  14   2.0000      -0.249189        -6.7808
  15   0.0000      -0.079193        -2.1550
  16   0.0000       0.048259         1.3132
  17   0.0000       0.069753         1.8981
  18   0.0000       0.094808         2.5799
  19   0.0000       0.113714         3.0943

MULLIKEN ATOMIC CHARGES
-----------------------
   0 C :    0.154363
   1 O :   -0.251454
   2 C :   -0.048312
   3 C :    0.100554
   4 H :    0.013688
   5 H :   -0.020897
   6 H :    0.028291
   7 H :    0.023766
Sum of atomic charges:   -0.0000000

LOEWDIN ATOMIC CHARGES
----------------------
   0 C :    0.011362
   1 O :   -0.083077
   2 C :   -0.084684
   3 C :    0.041492
   4 H :    0.015191
   5 H :    0.031566
   6 H :    0.034276
   7 H :    0.033874

  Mayer bond orders larger than 0.100000
B(  0-C ,  1-O ) :   2.1014 B(  0-C ,  2-C ) :   1.0501 B(  0-C ,  4-H ) :   0.9323
B(  2-C ,  3-C ) :   1.9938 B(  2-C ,  5-H ) :   0.9327 B(  3-C ,  6-H ) :   0.9401
B(  3-C ,  7-H ) :   0.9315

-----------------------------------------------------------------------------
         ABSORPTION SPECTRUM VIA TRANSITION ELECTRIC DIPOLE MOMENTS
-----------------------------------------------------------------------------
State   Energy    Wavelength  fosc         T2        TX        TY        TZ
        (cm-1)      (nm)                 (au**2)    (au)      (au)      (au)
-----------------------------------------------------------------------------
   1   23653.8    422.8   0.000161158   0.00224  -0.01488   0.00043  -0.04496

FINAL SINGLE POINT ENERGY      -191.673121579193

DIPOLE MOMENT
-------------
                                X             Y             Z
Electronic contribution:     -1.90831      -1.63613       0.28173
Nuclear contribution   :      2.47178       2.66077      -0.31547
                        -----------------------------------------
Total Dipole Moment    :      0.56347       1.02464      -0.03374
                        -----------------------------------------
Magnitude (a.u.)       :      1.16984
Magnitude (Debye)      :      2.97350

Rotational constants in cm-1:     0.810288     0.195525     0.157868
Rotational constants in MHz : 24291.825029  5861.678605  4732.751975

                             ****ORCA TERMINATED NORMALLY****
TOTAL RUN TIME: 0 days 0 hours 3 minutes 21 seconds 808 msec
