                         Program Version 5.0.3 -  RELEASE  -
|  1> ! B3LYP cc-pVDZ
|  2> !TightSCF
|  3> %scf
|  4>  ConvForced true
|  5>  convergence tight
|  6>  MaxIter 500
|  7> end
|  8>
|  9> %tddft
| 10>  nroots 1
| 11> end
| 12>
| 13> # 	357
| 14> * xyz 0 1
| 15> 		C   -1.177128  -0.436003   0.039622
| 16> 		O   -2.170955  -0.509473   0.781814
| 17> 		C    0.118920   0.267610   0.389617
| 18> 		C    1.213741   0.153209  -0.197195
| 19> 		H   -1.228388  -0.786308  -0.982616
| 20> 		H   -0.067407   1.082322   1.017185
| 21> 		H    1.319732  -0.499950  -1.032392
| 22> 		H    1.971965   0.674332   0.037967
| 23> *
| 24>
| 25>                          ****END OF INPUT****

CARTESIAN COORDINATES (ANGSTROEM)
---------------------------------
  C     -1.177128   -0.436003    0.039622
  O     -2.170955   -0.509473    0.781814
  C      0.118920    0.267610    0.389617
  C      1.213741    0.153209   -0.197195
  H     -1.228388   -0.786308   -0.982616
  H     -0.067407    1.082322    1.017185
  H      1.319732   -0.499950   -1.032392
  H      1.971965    0.674332    0.037967

 Total Charge           Charge          ....    0
 Multiplicity           Mult            ....    1
 Number of Electrons    NEL             ....   30
 Basis Dimension        Dim             ....   76

ORBITAL ENERGIES
----------------

  NO   OCC          E(Eh)            E(eV)
   0   2.0000     -19.143599      -520.9238
   1   2.0000     -10.279051      -279.7072
   2   2.0000     -10.194079      -277.3950
   3   2.0000     -10.188496      -277.2431
   4   2.0000      -1.030840       -28.0506
   5   2.0000      -0.823537       -22.4096
   6   2.0000      -0.659578       -17.9480
   7   2.0000      -0.577227       -15.7072
   8   2.0000      -0.499836       -13.6012
   9   2.0000      -0.480734       -13.0814
  10   2.0000      -0.429141       -11.6775
  11   2.0000      -0.398295       -10.8382
  12   2.0000      -0.372375       -10.1328
  13   2.0000      -0.305696        -8.3184
  14   2.0000      -0.256183        -6.9711
  15   0.0000      -0.061478        -1.6729
  16   0.0000       0.040765         1.1093
  17   0.0000       0.084851         2.3089
  18   0.0000       0.096614         2.6290
  19   0.0000       0.122308         3.3282

MULLIKEN ATOMIC CHARGES
-----------------------
   0 C :    0.180333
   1 O :   -0.215066
   2 C :   -0.113173
   3 C :    0.218150
   4 H :   -0.018793
   5 H :   -0.015323
   6 H :   -0.000467
   7 H :   -0.035660
Sum of atomic charges:   -0.0000000

LOEWDIN ATOMIC CHARGES
----------------------
   0 C :    0.006479
   1 O :   -0.024579
   2 C :   -0.050410
   3 C :    0.022565
   4 H :   -0.008571
   5 H :    0.027397
   6 H :    0.029827
   7 H :   -0.002708

  Mayer bond orders larger than 0.100000
B(  0-C ,  1-O ) :   2.1523 B(  0-C ,  2-C ) :   1.0354 B(  0-C ,  4-H ) :   0.9285
B(  2-C ,  3-C ) :   2.0247 B(  2-C ,  5-H ) :   0.9470 B(  3-C ,  6-H ) :   0.9304
B(  3-C ,  7-H ) :   0.9011

-----------------------------------------------------------------------------
         ABSORPTION SPECTRUM VIA TRANSITION ELECTRIC DIPOLE MOMENTS
-----------------------------------------------------------------------------
State   Energy    Wavelength  fosc         T2        TX        TY        TZ
        (cm-1)      (nm)                 (au**2)    (au)      (au)      (au)
-----------------------------------------------------------------------------
   1   28812.5    347.1   0.000032578   0.00037   0.00404  -0.01430   0.01231

FINAL SINGLE POINT ENERGY      -191.639551973531

DIPOLE MOMENT
-------------
                                X             Y             Z
Electronic contribution:     -2.92513      -0.72116       1.28808
Nuclear contribution   :      3.91373       0.96192      -1.85178
                        -----------------------------------------
Total Dipole Moment    :      0.98859       0.24076      -0.56370
                        -----------------------------------------
Magnitude (a.u.)       :      1.16320
Magnitude (Debye)      :      2.95663

Rotational constants in cm-1:     1.713196     0.151372     0.140389
Rotational constants in MHz : 51360.336329  4538.004290  4208.743505

                             ****ORCA TERMINATED NORMALLY****
TOTAL RUN TIME: 0 days 0 hours 3 minutes 27 seconds 223 msec
