                         Program Version 5.0.3 -  RELEASE  -
|  1> ! B3LYP cc-pVDZ
|  2> !TightSCF
|  3> %scf
|  4>  ConvForced true
|  5>  convergence tight
|  6>  MaxIter 500
|  7> end
|  8>
|  9> %tddft
| 10>  nroots 1
| 11> end
| 12>
| 13> # 	24762
| 14> * xyz 0 1
| 15> 		C   -0.567771  -0.432103   0.018039
| 16> 		O   -0.557988  -1.573728  -0.027244
| 17> 		C    0.601421   0.395621  -0.018163
| 18> 		C    1.825859  -0.170444   0.013275
| 19> 		H   -1.511897   0.103100   0.371805
| 20> 		H    0.484626   1.346016  -0.304721
| 21> 		H    1.987954  -1.219251   0.104485
| 22> 		H    2.671168   0.472102   0.088381
| 23> *
| 24>
| 25>                          ****END OF INPUT****

CARTESIAN COORDINATES (ANGSTROEM)
---------------------------------
  C     -0.567771   -0.432103    0.018039
  O     -0.557988   -1.573728   -0.027244
  C      0.601421    0.395621   -0.018163
  C      1.825859   -0.170444    0.013275
  H     -1.511897    0.103100    0.371805
  H      0.484626    1.346016   -0.304721
  H      1.987954   -1.219251    0.104485
  H      2.671168    0.472102    0.088381

 Total Charge           Charge          ....    0
 Multiplicity           Mult            ....    1
 Number of Electrons    NEL             ....   30
 Basis Dimension        Dim             ....   76

ORBITAL ENERGIES
----------------

  NO   OCC          E(Eh)            E(eV)
   0   2.0000     -19.132766      -520.6290
   1   2.0000     -10.262699      -279.2622
   2   2.0000     -10.208615      -277.7905
   3   2.0000     -10.189472      -277.2696
   4   2.0000      -1.084214       -29.5030
   5   2.0000      -0.799912       -21.7667
   6   2.0000      -0.660898       -17.9839
   7   2.0000      -0.544926       -14.8282
   8   2.0000      -0.519783       -14.1440
   9   2.0000      -0.455593       -12.3973
  10   2.0000      -0.435582       -11.8528
  11   2.0000      -0.411358       -11.1936
  12   2.0000      -0.394167       -10.7258
  13   2.0000      -0.285835        -7.7780
  14   2.0000      -0.249661        -6.7936
  15   0.0000      -0.064513        -1.7555
  16   0.0000       0.060369         1.6427
  17   0.0000       0.085337         2.3221
  18   0.0000       0.098755         2.6872
  19   0.0000       0.128612         3.4997

MULLIKEN ATOMIC CHARGES
-----------------------
   0 C :    0.151251
   1 O :   -0.131905
   2 C :   -0.070560
   3 C :    0.090656
   4 H :   -0.048615
   5 H :   -0.040668
   6 H :    0.027276
   7 H :    0.022564
Sum of atomic charges:    0.0000000

LOEWDIN ATOMIC CHARGES
----------------------
   0 C :   -0.092475
   1 O :    0.064225
   2 C :   -0.064629
   3 C :    0.050816
   4 H :   -0.016317
   5 H :    0.006258
   6 H :    0.025623
   7 H :    0.026498

  Mayer bond orders larger than 0.100000
B(  0-C ,  1-O ) :   2.2759 B(  0-C ,  2-C ) :   1.0623 B(  0-C ,  4-H ) :   0.9025
B(  2-C ,  3-C ) :   1.9682 B(  2-C ,  5-H ) :   0.9435 B(  3-C ,  6-H ) :   0.9437
B(  3-C ,  7-H ) :   0.9437

-----------------------------------------------------------------------------
         ABSORPTION SPECTRUM VIA TRANSITION ELECTRIC DIPOLE MOMENTS
-----------------------------------------------------------------------------
State   Energy    Wavelength  fosc         T2        TX        TY        TZ
        (cm-1)      (nm)                 (au**2)    (au)      (au)      (au)
-----------------------------------------------------------------------------
   1   28371.9    352.5   0.000246127   0.00286  -0.03362   0.00563   0.04116

FINAL SINGLE POINT ENERGY      -191.653258972841

DIPOLE MOMENT
-------------
                                X             Y             Z
Electronic contribution:     -1.80939      -1.68679      -0.24712
Nuclear contribution   :      2.25208       2.44673       0.24454
                        -----------------------------------------
Total Dipole Moment    :      0.44270       0.75994      -0.00257
                        -----------------------------------------
Magnitude (a.u.)       :      0.87949
Magnitude (Debye)      :      2.23547

Rotational constants in cm-1:     0.793216     0.222545     0.174773
Rotational constants in MHz : 23780.007144  6671.730274  5239.573052

                             ****ORCA TERMINATED NORMALLY****
TOTAL RUN TIME: 0 days 0 hours 3 minutes 23 seconds 592 msec
