                         Program Version 5.0.3 -  RELEASE  -
|  1> ! B3LYP cc-pVDZ
|  2> !TightSCF
|  3> %scf
|  4>  ConvForced true
|  5>  convergence tight
|  6>  MaxIter 500
|  7> end
|  8>
|  9> %tddft
| 10>  nroots 1
| 11> end
| 12>
| 13> # 	21702
| 14> * xyz 0 1
| 15> 		C   -0.574801  -0.465834  -0.050367
| 16> 		O   -0.583919  -1.642007   0.025391
| 17> 		C    0.629827   0.457859   0.023318
| 18> 		C    1.829115  -0.137476  -0.039760
| 19> 		H   -1.513844   0.161657  -0.010960
| 20> 		H    0.466274   1.521743   0.212642
| 21> 		H    1.876572  -1.057089   0.128365
| 22> 		H    2.938598   0.414831   0.075102
| 23> *
| 24>
| 25>                          ****END OF INPUT****

CARTESIAN COORDINATES (ANGSTROEM)
---------------------------------
  C     -0.574801   -0.465834   -0.050367
  O     -0.583919   -1.642007    0.025391
  C      0.629827    0.457859    0.023318
  C      1.829115   -0.137476   -0.039760
  H     -1.513844    0.161657   -0.010960
  H      0.466274    1.521743    0.212642
  H      1.876572   -1.057089    0.128365
  H      2.938598    0.414831    0.075102

 Total Charge           Charge          ....    0
 Multiplicity           Mult            ....    1
 Number of Electrons    NEL             ....   30
 Basis Dimension        Dim             ....   76

ORBITAL ENERGIES
----------------

  NO   OCC          E(Eh)            E(eV)
   0   2.0000     -19.145343      -520.9713
   1   2.0000     -10.278854      -279.7019
   2   2.0000     -10.209900      -277.8255
   3   2.0000     -10.207699      -277.7656
   4   2.0000      -1.068782       -29.0830
   5   2.0000      -0.795861       -21.6565
   6   2.0000      -0.653825       -17.7915
   7   2.0000      -0.551777       -15.0146
   8   2.0000      -0.498771       -13.5722
   9   2.0000      -0.458253       -12.4697
  10   2.0000      -0.424033       -11.5385
  11   2.0000      -0.409235       -11.1358
  12   2.0000      -0.382936       -10.4202
  13   2.0000      -0.287915        -7.8346
  14   2.0000      -0.256953        -6.9921
  15   0.0000      -0.067431        -1.8349
  16   0.0000       0.051263         1.3949
  17   0.0000       0.056363         1.5337
  18   0.0000       0.093424         2.5422
  19   0.0000       0.123315         3.3556

MULLIKEN ATOMIC CHARGES
-----------------------
   0 C :    0.181972
   1 O :   -0.157915
   2 C :   -0.133548
   3 C :    0.111598
   4 H :   -0.027711
   5 H :    0.002658
   6 H :   -0.027031
   7 H :    0.049977
Sum of atomic charges:    0.0000000

LOEWDIN ATOMIC CHARGES
----------------------
   0 C :   -0.049199
   1 O :    0.031820
   2 C :   -0.070906
   3 C :    0.042430
   4 H :   -0.012478
   5 H :    0.029614
   6 H :   -0.024829
   7 H :    0.053548

  Mayer bond orders larger than 0.100000
B(  0-C ,  1-O ) :   2.2343 B(  0-C ,  2-C ) :   1.0208 B(  0-C ,  4-H ) :   0.9061
B(  2-C ,  3-C ) :   1.9520 B(  2-C ,  5-H ) :   0.9523 B(  3-C ,  6-H ) :   0.9314
B(  3-C ,  7-H ) :   0.9523

-----------------------------------------------------------------------------
         ABSORPTION SPECTRUM VIA TRANSITION ELECTRIC DIPOLE MOMENTS
-----------------------------------------------------------------------------
State   Energy    Wavelength  fosc         T2        TX        TY        TZ
        (cm-1)      (nm)                 (au**2)    (au)      (au)      (au)
-----------------------------------------------------------------------------
   1   29176.0    342.7   0.000093578   0.00106   0.00785  -0.01825  -0.02572

FINAL SINGLE POINT ENERGY      -191.632651703478

DIPOLE MOMENT
-------------
                                X             Y             Z
Electronic contribution:     -2.03179      -1.95885      -0.31693
Nuclear contribution   :      2.37786       2.76474       0.37966
                        -----------------------------------------
Total Dipole Moment    :      0.34607       0.80589       0.06272
                        -----------------------------------------
Magnitude (a.u.)       :      0.87930
Magnitude (Debye)      :      2.23499

Rotational constants in cm-1:     0.763911     0.207285     0.163468
Rotational constants in MHz : 22901.485603  6214.260821  4900.658392

                             ****ORCA TERMINATED NORMALLY****
TOTAL RUN TIME: 0 days 0 hours 3 minutes 26 seconds 42 msec
