                         Program Version 5.0.3 -  RELEASE  -
|  1> ! B3LYP cc-pVDZ
|  2> !TightSCF
|  3> %scf
|  4>  ConvForced true
|  5>  convergence tight
|  6>  MaxIter 500
|  7> end
|  8>
|  9> %tddft
| 10>  nroots 1
| 11> end
| 12>
| 13> # 	25050
| 14> * xyz 0 1
| 15> 		C   -0.560879  -0.449968  -0.034508
| 16> 		O   -0.575160  -1.582138   0.009928
| 17> 		C    0.567927   0.356579   0.058391
| 18> 		C    1.861535  -0.112679  -0.048418
| 19> 		H   -1.462234   0.300733  -0.044155
| 20> 		H    0.509568   1.393101  -0.035735
| 21> 		H    1.971081  -1.302890   0.206524
| 22> 		H    2.773372   0.444811   0.004923
| 23> *
| 24>
| 25>                          ****END OF INPUT****

CARTESIAN COORDINATES (ANGSTROEM)
---------------------------------
  C     -0.560879   -0.449968   -0.034508
  O     -0.575160   -1.582138    0.009928
  C      0.567927    0.356579    0.058391
  C      1.861535   -0.112679   -0.048418
  H     -1.462234    0.300733   -0.044155
  H      0.509568    1.393101   -0.035735
  H      1.971081   -1.302890    0.206524
  H      2.773372    0.444811    0.004923

 Total Charge           Charge          ....    0
 Multiplicity           Mult            ....    1
 Number of Electrons    NEL             ....   30
 Basis Dimension        Dim             ....   76

ORBITAL ENERGIES
----------------

  NO   OCC          E(Eh)            E(eV)
   0   2.0000     -19.139604      -520.8151
   1   2.0000     -10.267237      -279.3857
   2   2.0000     -10.227761      -278.3115
   3   2.0000     -10.194472      -277.4057
   4   2.0000      -1.094280       -29.7769
   5   2.0000      -0.797768       -21.7084
   6   2.0000      -0.664921       -18.0934
   7   2.0000      -0.532293       -14.4844
   8   2.0000      -0.518467       -14.1082
   9   2.0000      -0.458000       -12.4628
  10   2.0000      -0.429461       -11.6862
  11   2.0000      -0.426547       -11.6069
  12   2.0000      -0.364979        -9.9316
  13   2.0000      -0.285878        -7.7791
  14   2.0000      -0.255802        -6.9607
  15   0.0000      -0.075958        -2.0669
  16   0.0000       0.071400         1.9429
  17   0.0000       0.073588         2.0024
  18   0.0000       0.083034         2.2595
  19   0.0000       0.128172         3.4877

MULLIKEN ATOMIC CHARGES
-----------------------
   0 C :    0.160029
   1 O :   -0.117177
   2 C :   -0.067208
   3 C :    0.002307
   4 H :   -0.054429
   5 H :   -0.025203
   6 H :    0.063623
   7 H :    0.038059
Sum of atomic charges:    0.0000000

LOEWDIN ATOMIC CHARGES
----------------------
   0 C :   -0.118315
   1 O :    0.085074
   2 C :   -0.082006
   3 C :    0.035030
   4 H :   -0.015798
   5 H :    0.019033
   6 H :    0.053648
   7 H :    0.023335

  Mayer bond orders larger than 0.100000
B(  0-C ,  1-O ) :   2.2866 B(  0-C ,  2-C ) :   1.0862 B(  0-C ,  4-H ) :   0.8899
B(  1-O ,  3-C ) :   0.1021 B(  2-C ,  3-C ) :   1.9198 B(  2-C ,  5-H ) :   0.9471
B(  3-C ,  6-H ) :   0.9370 B(  3-C ,  7-H ) :   0.9461

-----------------------------------------------------------------------------
         ABSORPTION SPECTRUM VIA TRANSITION ELECTRIC DIPOLE MOMENTS
-----------------------------------------------------------------------------
State   Energy    Wavelength  fosc         T2        TX        TY        TZ
        (cm-1)      (nm)                 (au**2)    (au)      (au)      (au)
-----------------------------------------------------------------------------
   1   27650.3    361.7   0.000752207   0.00896  -0.08821   0.01194   0.03212

FINAL SINGLE POINT ENERGY      -191.641698852306

DIPOLE MOMENT
-------------
                                X             Y             Z
Electronic contribution:     -1.87499      -1.80172      -0.11437
Nuclear contribution   :      2.40218       2.57141       0.12379
                        -----------------------------------------
Total Dipole Moment    :      0.52719       0.76968       0.00942
                        -----------------------------------------
Magnitude (a.u.)       :      0.93297
Magnitude (Debye)      :      2.37142

Rotational constants in cm-1:     0.801215     0.216542     0.170923
Rotational constants in MHz : 24019.833591  6491.765769  5124.134517

                             ****ORCA TERMINATED NORMALLY****
TOTAL RUN TIME: 0 days 0 hours 3 minutes 14 seconds 721 msec
