                         Program Version 5.0.3 -  RELEASE  -
|  1> ! B3LYP cc-pVDZ
|  2> !TightSCF
|  3> %scf
|  4>  ConvForced true
|  5>  convergence tight
|  6>  MaxIter 500
|  7> end
|  8>
|  9> %tddft
| 10>  nroots 1
| 11> end
| 12>
| 13> # 	24901
| 14> * xyz 0 1
| 15> 		C   -0.566980  -0.414949  -0.029377
| 16> 		O   -0.585622  -1.643286   0.010599
| 17> 		C    0.611714   0.392916   0.025406
| 18> 		C    1.843086  -0.100590  -0.015428
| 19> 		H   -1.617804   0.110197   0.023380
| 20> 		H    0.489118   1.498842   0.001319
| 21> 		H    2.011961  -1.238913   0.029736
| 22> 		H    2.874991   0.433989   0.008552
| 23> *
| 24>
| 25>                          ****END OF INPUT****

CARTESIAN COORDINATES (ANGSTROEM)
---------------------------------
  C     -0.566980   -0.414949   -0.029377
  O     -0.585622   -1.643286    0.010599
  C      0.611714    0.392916    0.025406
  C      1.843086   -0.100590   -0.015428
  H     -1.617804    0.110197    0.023380
  H      0.489118    1.498842    0.001319
  H      2.011961   -1.238913    0.029736
  H      2.874991    0.433989    0.008552

 Total Charge           Charge          ....    0
 Multiplicity           Mult            ....    1
 Number of Electrons    NEL             ....   30
 Basis Dimension        Dim             ....   76

ORBITAL ENERGIES
----------------

  NO   OCC          E(Eh)            E(eV)
   0   2.0000     -19.135566      -520.7052
   1   2.0000     -10.277565      -279.6667
   2   2.0000     -10.228482      -278.3311
   3   2.0000     -10.209299      -277.8092
   4   2.0000      -1.035148       -28.1678
   5   2.0000      -0.801399       -21.8072
   6   2.0000      -0.657262       -17.8850
   7   2.0000      -0.535135       -14.5618
   8   2.0000      -0.504065       -13.7163
   9   2.0000      -0.450623       -12.2621
  10   2.0000      -0.416548       -11.3348
  11   2.0000      -0.396834       -10.7984
  12   2.0000      -0.365469        -9.9449
  13   2.0000      -0.291373        -7.9287
  14   2.0000      -0.254431        -6.9234
  15   0.0000      -0.076438        -2.0800
  16   0.0000       0.055447         1.5088
  17   0.0000       0.066685         1.8146
  18   0.0000       0.080889         2.2011
  19   0.0000       0.115608         3.1459

MULLIKEN ATOMIC CHARGES
-----------------------
   0 C :    0.160583
   1 O :   -0.203657
   2 C :   -0.070930
   3 C :    0.012558
   4 H :   -0.011592
   5 H :    0.001196
   6 H :    0.055427
   7 H :    0.056415
Sum of atomic charges:    0.0000000

LOEWDIN ATOMIC CHARGES
----------------------
   0 C :   -0.038015
   1 O :   -0.023273
   2 C :   -0.095796
   3 C :    0.024434
   4 H :    0.003472
   5 H :    0.037564
   6 H :    0.044576
   7 H :    0.047038

  Mayer bond orders larger than 0.100000
B(  0-C ,  1-O ) :   2.1640 B(  0-C ,  2-C ) :   1.0753 B(  0-C ,  4-H ) :   0.9131
B(  1-O ,  3-C ) :   0.1047 B(  2-C ,  3-C ) :   1.9306 B(  2-C ,  5-H ) :   0.9412
B(  3-C ,  6-H ) :   0.9312 B(  3-C ,  7-H ) :   0.9464

-----------------------------------------------------------------------------
         ABSORPTION SPECTRUM VIA TRANSITION ELECTRIC DIPOLE MOMENTS
-----------------------------------------------------------------------------
State   Energy    Wavelength  fosc         T2        TX        TY        TZ
        (cm-1)      (nm)                 (au**2)    (au)      (au)      (au)
-----------------------------------------------------------------------------
   1   26180.6    382.0   0.000188267   0.00237   0.02770  -0.00445  -0.03975

FINAL SINGLE POINT ENERGY      -191.678692902906

DIPOLE MOMENT
-------------
                                X             Y             Z
Electronic contribution:     -1.84777      -1.64208      -0.06897
Nuclear contribution   :      2.36857       2.54135       0.05925
                        -----------------------------------------
Total Dipole Moment    :      0.52080       0.89927      -0.00973
                        -----------------------------------------
Magnitude (a.u.)       :      1.03924
Magnitude (Debye)      :      2.64154

Rotational constants in cm-1:     0.765813     0.207959     0.163624
Rotational constants in MHz : 22958.485834  6234.463591  4905.338564

                             ****ORCA TERMINATED NORMALLY****
TOTAL RUN TIME: 0 days 0 hours 3 minutes 20 seconds 161 msec
