                         Program Version 5.0.3 -  RELEASE  -
|  1> ! HF-3c
|  2> !TightSCF
|  3> %scf
|  4>  ConvForced true
|  5>  convergence tight
|  6>  MaxIter 500
|  7> end
|  8>
|  9> %tddft
| 10>  nroots 1
| 11> end
| 12>
| 13> # 	27642
| 14> * xyz 0 1
| 15> 		C   -0.607107  -0.407516  -0.005001
| 16> 		O   -0.513164  -1.593038   0.017764
| 17> 		C    0.636883   0.403498  -0.066341
| 18> 		C    1.780732  -0.199726   0.018772
| 19> 		H   -1.570334   0.211154   0.070411
| 20> 		H    0.634047   1.528434   0.286721
| 21> 		H    1.935794  -1.248347  -0.216244
| 22> 		H    2.549624   0.507496   0.230528
| 23> *
| 24>
| 25>                          ****END OF INPUT****

CARTESIAN COORDINATES (ANGSTROEM)
---------------------------------
  C     -0.607107   -0.407516   -0.005001
  O     -0.513164   -1.593038    0.017764
  C      0.636883    0.403498   -0.066341
  C      1.780732   -0.199726    0.018772
  H     -1.570334    0.211154    0.070411
  H      0.634047    1.528434    0.286721
  H      1.935794   -1.248347   -0.216244
  H      2.549624    0.507496    0.230528

 Total Charge           Charge          ....    0
 Multiplicity           Mult            ....    1
 Number of Electrons    NEL             ....   30
 Basis Dimension        Dim             ....   24

ORBITAL ENERGIES
----------------

  NO   OCC          E(Eh)            E(eV)
   0   2.0000     -20.369731      -554.2886
   1   2.0000     -11.300080      -307.4908
   2   2.0000     -11.181718      -304.2700
   3   2.0000     -11.176375      -304.1246
   4   2.0000      -1.419542       -38.6277
   5   2.0000      -1.086406       -29.5626
   6   2.0000      -0.881587       -23.9892
   7   2.0000      -0.730365       -19.8742
   8   2.0000      -0.706509       -19.2251
   9   2.0000      -0.616208       -16.7679
  10   2.0000      -0.584867       -15.9150
  11   2.0000      -0.551688       -15.0122
  12   2.0000      -0.522335       -14.2135
  13   2.0000      -0.407905       -11.0997
  14   2.0000      -0.399118       -10.8606
  15   0.0000       0.145311         3.9541
  16   0.0000       0.309734         8.4283
  17   0.0000       0.535295        14.5661
  18   0.0000       0.588812        16.0224
  19   0.0000       0.647855        17.6290

MULLIKEN ATOMIC CHARGES
-----------------------
   0 C :    0.179182
   1 O :   -0.360881
   2 C :   -0.168846
   3 C :   -0.234694
   4 H :    0.137586
   5 H :    0.137851
   6 H :    0.164693
   7 H :    0.145107
Sum of atomic charges:    0.0000000

LOEWDIN ATOMIC CHARGES
----------------------
   0 C :    0.152754
   1 O :   -0.259453
   2 C :   -0.135291
   3 C :   -0.131911
   4 H :    0.076665
   5 H :    0.093960
   6 H :    0.109353
   7 H :    0.093923

  Mayer bond orders larger than 0.100000
B(  0-C ,  1-O ) :   1.9194 B(  0-C ,  2-C ) :   1.0071 B(  0-C ,  4-H ) :   0.9161
B(  2-C ,  3-C ) :   1.9579 B(  2-C ,  5-H ) :   0.9555 B(  3-C ,  6-H ) :   0.9560
B(  3-C ,  7-H ) :   0.9634

-----------------------------------------------------------------------------
         ABSORPTION SPECTRUM VIA TRANSITION ELECTRIC DIPOLE MOMENTS
-----------------------------------------------------------------------------
State   Energy    Wavelength  fosc         T2        TX        TY        TZ
        (cm-1)      (nm)                 (au**2)    (au)      (au)      (au)
-----------------------------------------------------------------------------
   1   34407.7    290.6   0.000372747   0.00357  -0.05864   0.00257  -0.01103

Dispersion correction           -0.026312181
FINAL SINGLE POINT ENERGY      -189.314874968619

DIPOLE MOMENT
-------------
                                X             Y             Z
Electronic contribution:     -1.98896      -1.78353      -0.26433
Nuclear contribution   :      2.17210       2.72295       0.34689
                        -----------------------------------------
Total Dipole Moment    :      0.18314       0.93942       0.08256
                        -----------------------------------------
Magnitude (a.u.)       :      0.96066
Magnitude (Debye)      :      2.44181

Rotational constants in cm-1:     0.739439     0.228957     0.175739
Rotational constants in MHz : 22167.826330  6863.960272  5268.534267

                             ****ORCA TERMINATED NORMALLY****
TOTAL RUN TIME: 0 days 0 hours 0 minutes 16 seconds 88 msec
