                         Program Version 5.0.3 -  RELEASE  -
|  1> ! HF-3c
|  2> !TightSCF
|  3> %scf
|  4>  ConvForced true
|  5>  convergence tight
|  6>  MaxIter 500
|  7> end
|  8>
|  9> %tddft
| 10>  nroots 1
| 11> end
| 12>
| 13> # 	14635
| 14> * xyz 0 1
| 15> 		C   -1.146055  -0.339848   0.040322
| 16> 		O   -1.988918  -0.666630   0.900147
| 17> 		C    0.092408   0.435544   0.376305
| 18> 		C    1.215999   0.088006  -0.191066
| 19> 		H   -1.400769  -0.559302  -1.078692
| 20> 		H   -0.100187   1.000943   1.067525
| 21> 		H    1.211489  -0.565503  -1.058862
| 22> 		H    2.104817   0.614164  -0.131244
| 23> *
| 24>
| 25>                          ****END OF INPUT****

CARTESIAN COORDINATES (ANGSTROEM)
---------------------------------
  C     -1.146055   -0.339848    0.040322
  O     -1.988918   -0.666630    0.900147
  C      0.092408    0.435544    0.376305
  C      1.215999    0.088006   -0.191066
  H     -1.400769   -0.559302   -1.078692
  H     -0.100187    1.000943    1.067525
  H      1.211489   -0.565503   -1.058862
  H      2.104817    0.614164   -0.131244

 Total Charge           Charge          ....    0
 Multiplicity           Mult            ....    1
 Number of Electrons    NEL             ....   30
 Basis Dimension        Dim             ....   24

ORBITAL ENERGIES
----------------

  NO   OCC          E(Eh)            E(eV)
   0   2.0000     -20.358099      -553.9720
   1   2.0000     -11.286342      -307.1170
   2   2.0000     -11.212898      -305.1185
   3   2.0000     -11.206697      -304.9497
   4   2.0000      -1.376540       -37.4575
   5   2.0000      -1.109299       -30.1856
   6   2.0000      -0.894938       -24.3525
   7   2.0000      -0.798383       -21.7251
   8   2.0000      -0.682409       -18.5693
   9   2.0000      -0.663204       -18.0467
  10   2.0000      -0.595130       -16.1943
  11   2.0000      -0.555614       -15.1190
  12   2.0000      -0.511285       -13.9128
  13   2.0000      -0.415930       -11.3180
  14   2.0000      -0.411182       -11.1888
  15   0.0000       0.136815         3.7229
  16   0.0000       0.261302         7.1104
  17   0.0000       0.514118        13.9899
  18   0.0000       0.614491        16.7212
  19   0.0000       0.701260        19.0823

MULLIKEN ATOMIC CHARGES
-----------------------
   0 C :    0.174793
   1 O :   -0.345991
   2 C :   -0.195177
   3 C :   -0.227895
   4 H :    0.138863
   5 H :    0.157731
   6 H :    0.147287
   7 H :    0.150390
Sum of atomic charges:    0.0000000

LOEWDIN ATOMIC CHARGES
----------------------
   0 C :    0.155389
   1 O :   -0.261775
   2 C :   -0.126592
   3 C :   -0.125711
   4 H :    0.081550
   5 H :    0.087533
   6 H :    0.095964
   7 H :    0.093641

  Mayer bond orders larger than 0.100000
B(  0-C ,  1-O ) :   1.9266 B(  0-C ,  2-C ) :   1.0018 B(  0-C ,  4-H ) :   0.9222
B(  2-C ,  3-C ) :   1.9715 B(  2-C ,  5-H ) :   0.9581 B(  3-C ,  6-H ) :   0.9619
B(  3-C ,  7-H ) :   0.9630

-----------------------------------------------------------------------------
         ABSORPTION SPECTRUM VIA TRANSITION ELECTRIC DIPOLE MOMENTS
-----------------------------------------------------------------------------
State   Energy    Wavelength  fosc         T2        TX        TY        TZ
        (cm-1)      (nm)                 (au**2)    (au)      (au)      (au)
-----------------------------------------------------------------------------
   1   31635.3    316.1   0.000147529   0.00154  -0.03884   0.00323   0.00404

Dispersion correction           -0.025733801
FINAL SINGLE POINT ENERGY      -189.300850889627

DIPOLE MOMENT
-------------
                                X             Y             Z
Electronic contribution:     -2.73800      -0.72865       1.38660
Nuclear contribution   :      3.55804       0.98536      -2.18216
                        -----------------------------------------
Total Dipole Moment    :      0.82004       0.25671      -0.79556
                        -----------------------------------------
Magnitude (a.u.)       :      1.17102
Magnitude (Debye)      :      2.97649

Rotational constants in cm-1:     1.367663     0.157539     0.147831
Rotational constants in MHz : 41001.493905  4722.894194  4431.872680

                             ****ORCA TERMINATED NORMALLY****
TOTAL RUN TIME: 0 days 0 hours 0 minutes 9 seconds 775 msec
